 ----------------------------------------------------
    OOO  PPPP  EEEEE N   N M   M PPPP
   O   O P   P E     NN  N MM MM P   P
   O   O PPPP  EEEEE N N N M M M PPPP   -- VERSION
   O   O P     E     N  NN M   M P
    OOO  P     EEEEE N   N M   M P
 ----------------------------------------------------
 running    4 mpi-ranks, with    1 threads/rank
 distrk:  each k-point on    4 cores,    1 groups
 distr:  one band on    1 cores,    4 groups
 OpenACC runtime initialized ...    2 GPUs detected
 WARNING: INIT_ACC: several MPI-ranks need to share a GPU, which is not
     supported by NCCL. The use of NCCL will be switched off. To avoid this,
     reduce the number of MPI-ranks: #-of-ranks <= #-of-GPUs (on every node!).

 vasp.6.3.2 27Jun22 (build Aug  5 2024 13:45:50) complex                         
 POSCAR found type information on POSCAR MnBrN C H 
 POSCAR found :  5 types and     636 ions
 LDA part: xc-table for Pade appr. of Perdew
 POSCAR, INCAR and KPOINTS ok, starting setup
 FFT: planning ... GRIDC
 FFT: planning ... GRID_SOFT
 FFT: planning ... GRID
 WAVECAR not read
 entering main loop
       N       E                     dE             d eps       ncg     rms          rms(c)
DAV:   1     0.104650724816E+05    0.10465E+05   -0.80145E+05  5184   0.122E+03
DAV:   2    -0.247521381948E+04   -0.12940E+05   -0.12477E+05  6112   0.267E+02
DAV:   3    -0.389182876621E+04   -0.14166E+04   -0.13792E+04  6144   0.936E+01
DAV:   4    -0.393553855934E+04   -0.43710E+02   -0.43120E+02  6192   0.183E+01
DAV:   5    -0.393711665290E+04   -0.15781E+01   -0.15745E+01  6728   0.331E+00    0.188E+02
DAV:   6    -0.488178310463E+04   -0.94467E+03   -0.18481E+03  6328   0.495E+01    0.507E+02
DAV:   7    -0.433890288567E+04    0.54288E+03   -0.99970E+02  6224   0.241E+01    0.271E+02
DAV:   8    -0.356207886682E+04    0.77682E+03   -0.10564E+03  6656   0.476E+01    0.892E+01
DAV:   9    -0.377252738011E+04   -0.21045E+03   -0.58968E+02  6264   0.160E+01    0.141E+02
DAV:  10    -0.361664196494E+04    0.15589E+03   -0.14586E+02  6384   0.227E+01    0.837E+01
DAV:  11    -0.366073911307E+04   -0.44097E+02   -0.59039E+01  6312   0.966E+00    0.114E+02
DAV:  12    -0.369066491783E+04   -0.29926E+02   -0.15235E+02  6336   0.106E+01    0.123E+02
DAV:  13    -0.364382228580E+04    0.46843E+02   -0.79175E+01  6136   0.150E+01    0.106E+02
DAV:  14    -0.361612931373E+04    0.27693E+02   -0.84746E+01  6128   0.971E+00    0.960E+01
DAV:  15    -0.360871220226E+04    0.74171E+01   -0.58871E+01  6008   0.673E+00    0.877E+01
DAV:  16    -0.359055844419E+04    0.18154E+02   -0.20578E+01  6056   0.398E+00    0.741E+01
DAV:  17    -0.359018691577E+04    0.37153E+00   -0.10494E+01  5872   0.257E+00    0.598E+01
DAV:  18    -0.359879422055E+04   -0.86073E+01   -0.37248E+01  5824   0.242E+00    0.706E+01
DAV:  19    -0.359390819443E+04    0.48860E+01   -0.14590E+01  5464   0.163E+00    0.625E+01
DAV:  20    -0.359738617755E+04   -0.34780E+01   -0.18602E+01  5680   0.204E+00    0.651E+01
DAV:  21    -0.359793769095E+04   -0.55151E+00   -0.19701E+01  5336   0.200E+00    0.643E+01
DAV:  22    -0.359540875637E+04    0.25289E+01   -0.13863E+00  5288   0.135E+00    0.478E+01
DAV:  23    -0.359602582225E+04   -0.61707E+00   -0.41484E+00  5224   0.102E+00    0.490E+01
DAV:  24    -0.359758001699E+04   -0.15542E+01   -0.19180E+00  5448   0.950E-01    0.535E+01
DAV:  25    -0.359696246479E+04    0.61755E+00   -0.92268E-01  5224   0.983E-01    0.482E+01
DAV:  26    -0.359682129057E+04    0.14117E+00   -0.50901E-01  5328   0.612E-01    0.494E+01
DAV:  27    -0.359781054605E+04   -0.98926E+00   -0.14661E+00  5424   0.523E-01    0.500E+01
DAV:  28    -0.359895750314E+04   -0.11470E+01   -0.63704E+00  5712   0.136E+00    0.525E+01
DAV:  29    -0.359893759335E+04    0.19910E-01   -0.50139E-01  5312   0.853E-01    0.505E+01
DAV:  30    -0.359998562672E+04   -0.10480E+01   -0.67586E+00  5976   0.100E+00    0.476E+01
DAV:  31    -0.360252404082E+04   -0.25384E+01   -0.53442E+00  5784   0.168E+00    0.440E+01
DAV:  32    -0.360400710695E+04   -0.14831E+01   -0.17506E+00  5920   0.920E-01    0.421E+01
DAV:  33    -0.360456160151E+04   -0.55449E+00   -0.39771E+00  5776   0.844E-01    0.425E+01
DAV:  34    -0.360483612145E+04   -0.27452E+00   -0.31680E+00  5552   0.859E-01    0.405E+01
DAV:  35    -0.360691800025E+04   -0.20819E+01   -0.26147E+00  5688   0.184E+00    0.349E+01
DAV:  36    -0.360671313902E+04    0.20486E+00   -0.69325E-01  5728   0.839E-01    0.326E+01
DAV:  37    -0.360626640953E+04    0.44673E+00   -0.72477E-01  6160   0.103E+00    0.316E+01
DAV:  38    -0.360508445228E+04    0.11820E+01   -0.43455E+00  5976   0.114E+00    0.313E+01
DAV:  39    -0.360660893527E+04   -0.15245E+01   -0.88198E-01  5488   0.750E-01    0.283E+01
DAV:  40    -0.360669786771E+04   -0.88932E-01   -0.19831E-01  6136   0.385E-01    0.276E+01
DAV:  41    -0.360461930635E+04    0.20786E+01   -0.12057E+00  5728   0.623E-01    0.272E+01
DAV:  42    -0.360232056544E+04    0.22987E+01   -0.78225E-01  5760   0.538E-01    0.264E+01
DAV:  43    -0.360188142669E+04    0.43914E+00   -0.77215E-01  5728   0.401E-01    0.263E+01
DAV:  44    -0.360158583997E+04    0.29559E+00   -0.41493E-02  5720   0.192E-01    0.266E+01
DAV:  45    -0.360024653785E+04    0.13393E+01   -0.13310E-01  6144   0.291E-01    0.271E+01
DAV:  46    -0.359862809742E+04    0.16184E+01   -0.20539E-01  6104   0.310E-01    0.278E+01
DAV:  47    -0.359644172631E+04    0.21864E+01   -0.31528E-01  6208   0.374E-01    0.268E+01
DAV:  48    -0.359067834352E+04    0.57634E+01   -0.74575E-01  5872   0.613E-01    0.284E+01
DAV:  49    -0.358438910246E+04    0.62892E+01   -0.69754E-01  5896   0.521E-01    0.295E+01
DAV:  50    -0.358536790722E+04   -0.97880E+00   -0.80911E-02  5448   0.236E-01    0.294E+01
DAV:  51    -0.356022782729E+04    0.25140E+02   -0.70832E+00  5872   0.253E+00    0.342E+01
DAV:  52    -0.356080610857E+04   -0.57828E+00   -0.17949E+02  5632   0.132E+01    0.345E+01
DAV:  53    -0.356275998497E+04   -0.19539E+01   -0.22860E+01  5336   0.163E+00    0.337E+01
DAV:  54    -0.356563086722E+04   -0.28709E+01   -0.14439E+02  5576   0.670E+00    0.319E+01
DAV:  55    -0.358364153575E+04   -0.18011E+02   -0.36495E+01  5520   0.190E+00    0.303E+01
DAV:  56    -0.357176339369E+04    0.11878E+02   -0.19473E+01  6544   0.167E+00    0.371E+02
DAV:  57    -0.356732619848E+04    0.44372E+01   -0.28420E+02  6288   0.332E+00    0.358E+01
DAV:  58    -0.583130765717E+04   -0.22640E+04   -0.19149E+04  7456   0.116E+01    0.167E+03
DAV:  59    -0.350101617631E+04    0.23303E+04   -0.39444E+05  8176   0.210E+02    0.121E+02
DAV:  60    -0.359313750211E+04   -0.92121E+02   -0.20076E+02  6120   0.670E+00    0.303E+01
DAV:  61    -0.359403362391E+04   -0.89612E+00   -0.18702E+01  6040   0.310E+00    0.314E+01
DAV:  62    -0.358875830440E+04    0.52753E+01   -0.14550E+00  6320   0.119E+00    0.329E+01
DAV:  63    -0.358380665690E+04    0.49516E+01   -0.53572E-01  6264   0.731E-01    0.343E+01
DAV:  64    -0.357897125376E+04    0.48354E+01   -0.39917E-01  6416   0.978E-01    0.397E+01
DAV:  65    -0.357929870743E+04   -0.32745E+00   -0.23298E-01  5720   0.462E-01    0.385E+01
DAV:  66    -0.361090837535E+04   -0.31610E+02   -0.17302E+01  5760   0.246E+00    0.424E+01
DAV:  67    -0.361001191096E+04    0.89646E+00   -0.13611E+00  5960   0.112E+00    0.424E+01
DAV:  68    -0.360922005100E+04    0.79186E+00   -0.23690E-01  5952   0.561E-01    0.425E+01
DAV:  69    -0.360762005587E+04    0.16000E+01   -0.18511E-01  6368   0.716E-01    0.374E+01
DAV:  70    -0.360721912874E+04    0.40093E+00   -0.23182E-01  5864   0.579E-01    0.379E+01
DAV:  71    -0.362418431947E+04   -0.16965E+02   -0.12235E+01  6144   0.398E+00    0.584E+01
DAV:  72    -0.361308181207E+04    0.11103E+02   -0.13255E+01  5872   0.344E+00    0.350E+01
DAV:  73    -0.361214473430E+04    0.93708E+00   -0.14438E+00  6160   0.691E-01    0.312E+01
DAV:  74    -0.361168527113E+04    0.45946E+00   -0.41974E-01  6040   0.566E-01    0.318E+01
DAV:  75    -0.361067458316E+04    0.10107E+01   -0.59095E-01  6176   0.559E-01    0.283E+01
DAV:  76    -0.361023117560E+04    0.44341E+00   -0.16986E+00  6264   0.140E+00    0.201E+01
DAV:  77    -0.361100405253E+04   -0.77288E+00   -0.55958E-01  5472   0.818E-01    0.197E+01
DAV:  78    -0.361097297463E+04    0.31078E-01   -0.10068E+00  5808   0.533E-01    0.233E+01
DAV:  79    -0.361063010726E+04    0.34287E+00   -0.26978E-01  5808   0.514E-01    0.215E+01
DAV:  80    -0.361075491570E+04   -0.12481E+00   -0.93019E-02  5448   0.296E-01    0.232E+01
DAV:  81    -0.361040048378E+04    0.35443E+00   -0.35863E-01  6272   0.128E+00    0.195E+01
DAV:  82    -0.361090090026E+04   -0.50042E+00   -0.21136E-01  5952   0.485E-01    0.209E+01
DAV:  83    -0.361115945115E+04   -0.25855E+00   -0.21328E-01  5912   0.261E-01    0.197E+01
DAV:  84    -0.361158382994E+04   -0.42438E+00   -0.31617E-01  5464   0.441E-01    0.204E+01
DAV:  85    -0.361179566604E+04   -0.21184E+00   -0.50854E-02  5832   0.245E-01    0.217E+01
DAV:  86    -0.361272463301E+04   -0.92897E+00   -0.39207E-01  5584   0.663E-01    0.204E+01
DAV:  87    -0.361283370900E+04   -0.10908E+00   -0.20374E-01  6064   0.103E+00    0.197E+01
DAV:  88    -0.361344674219E+04   -0.61303E+00   -0.22297E-01  6184   0.897E-01    0.205E+01
DAV:  89    -0.361382860956E+04   -0.38187E+00   -0.32755E-01  6280   0.548E-01    0.231E+01
DAV:  90    -0.361385174537E+04   -0.23136E-01   -0.11811E-01  5720   0.356E-01    0.232E+01
DAV:  91    -0.361416345844E+04   -0.31171E+00   -0.16500E+01  6448   0.506E+00    0.145E+01
DAV:  92    -0.361522263818E+04   -0.10592E+01   -0.21187E+00  6160   0.137E+00    0.169E+01
DAV:  93    -0.361461961954E+04    0.60302E+00   -0.25076E+00  6008   0.125E+00    0.134E+01
DAV:  94    -0.361481545572E+04   -0.19584E+00   -0.21447E-01  6024   0.640E-01    0.122E+01
DAV:  95    -0.361495300481E+04   -0.13755E+00   -0.12747E-01  6400   0.526E-01    0.113E+01
DAV:  96    -0.361515715982E+04   -0.20416E+00   -0.47055E-01  5928   0.922E-01    0.102E+01
DAV:  97    -0.361513488785E+04    0.22272E-01   -0.13628E-01  5928   0.601E-01    0.937E+00
DAV:  98    -0.361510091706E+04    0.33971E-01   -0.78671E-02  6360   0.352E-01    0.895E+00
DAV:  99    -0.361503161532E+04    0.69302E-01   -0.42125E-02  6280   0.244E-01    0.875E+00
DAV: 100    -0.361495066014E+04    0.80955E-01   -0.23888E-02  6176   0.213E-01    0.868E+00
DAV: 101    -0.361477784216E+04    0.17282E+00   -0.18319E-01  6464   0.809E-01    0.777E+00
DAV: 102    -0.361482861179E+04   -0.50770E-01   -0.70176E-02  6088   0.375E-01    0.718E+00
DAV: 103    -0.361471749692E+04    0.11111E+00   -0.38175E-02  6264   0.374E-01    0.739E+00
DAV: 104    -0.361454846298E+04    0.16903E+00   -0.70791E-02  6168   0.339E-01    0.769E+00
DAV: 105    -0.361449120533E+04    0.57258E-01   -0.27417E-02  6200   0.184E-01    0.776E+00
DAV: 106    -0.361411934027E+04    0.37187E+00   -0.13049E-01  5752   0.441E-01    0.829E+00
DAV: 107    -0.361421991109E+04   -0.10057E+00   -0.32530E-02  5984   0.302E-01    0.776E+00
DAV: 108    -0.361411523853E+04    0.10467E+00   -0.31057E-02  6456   0.342E-01    0.775E+00
DAV: 109    -0.361391941499E+04    0.19582E+00   -0.53804E-02  6328   0.492E-01    0.788E+00
DAV: 110    -0.361381455854E+04    0.10486E+00   -0.44324E-02  6336   0.340E-01    0.804E+00
DAV: 111    -0.361436746283E+04   -0.55290E+00   -0.27750E-01  6080   0.115E+00    0.762E+00
DAV: 112    -0.361434341519E+04    0.24048E-01   -0.58836E-02  6032   0.260E-01    0.748E+00
DAV: 113    -0.361436178552E+04   -0.18370E-01   -0.10057E-02  6328   0.196E-01    0.740E+00
DAV: 114    -0.361443046892E+04   -0.68683E-01   -0.10406E-02  6392   0.208E-01    0.728E+00
DAV: 115    -0.361459618954E+04   -0.16572E+00   -0.28809E-02  6216   0.267E-01    0.704E+00
DAV: 116    -0.361515504506E+04   -0.55886E+00   -0.38654E-01  6152   0.123E+00    0.593E+00
DAV: 117    -0.361525833756E+04   -0.10329E+00   -0.15590E-01  6120   0.412E-01    0.585E+00
DAV: 118    -0.361551640037E+04   -0.25806E+00   -0.74881E-02  6528   0.626E-01    0.978E+00
DAV: 119    -0.361523787973E+04    0.27852E+00   -0.12067E-01  5904   0.654E-01    0.602E+00
DAV: 120    -0.361523315316E+04    0.47266E-02   -0.65854E-02  6024   0.399E-01    0.620E+00
DAV: 121    -0.361527030433E+04   -0.37151E-01   -0.10245E-01  5840   0.574E-01    0.874E+00
DAV: 122    -0.361508537004E+04    0.18493E+00   -0.53505E-02  5608   0.401E-01    0.690E+00
DAV: 123    -0.361508512515E+04    0.24489E-03   -0.25839E-02  5928   0.233E-01    0.669E+00
DAV: 124    -0.361504442494E+04    0.40700E-01   -0.12201E-02  6680   0.247E-01    0.624E+00
DAV: 125    -0.361502099365E+04    0.23431E-01   -0.14791E-02  6384   0.197E-01    0.594E+00
DAV: 126    -0.361496851382E+04    0.52480E-01   -0.73433E-02  6936   0.747E-01    0.513E+00
DAV: 127    -0.361498937234E+04   -0.20859E-01   -0.99215E-02  6456   0.453E-01    0.482E+00
DAV: 128    -0.361503187727E+04   -0.42505E-01   -0.61815E-02  6448   0.372E-01    0.455E+00
DAV: 129    -0.361510460738E+04   -0.72730E-01   -0.42455E-02  6544   0.420E-01    0.431E+00
DAV: 130    -0.361528987710E+04   -0.18527E+00   -0.93556E-02  6616   0.665E-01    0.401E+00
DAV: 131    -0.361636121791E+04   -0.10713E+01   -0.26515E-01  6456   0.102E+00    0.317E+01
DAV: 132    -0.361549214938E+04    0.86907E+00   -0.28548E-01  5552   0.531E-01    0.162E+01
DAV: 133    -0.361560705806E+04   -0.11491E+00   -0.49616E-02  5808   0.220E-01    0.169E+01
DAV: 134    -0.361572942981E+04   -0.12237E+00   -0.84971E-03  6096   0.901E-02    0.200E+01
DAV: 135    -0.361563598296E+04    0.93447E-01   -0.10680E-02  5504   0.953E-02    0.196E+01
DAV: 136    -0.361508442960E+04    0.55155E+00   -0.95224E-02  6568   0.680E-01    0.332E+00
DAV: 137    -0.361536197875E+04   -0.27755E+00   -0.12744E-01  5456   0.391E-01    0.316E+00
DAV: 138    -0.361540012990E+04   -0.38151E-01   -0.21707E-02  5952   0.224E-01    0.320E+00
DAV: 139    -0.361537410814E+04    0.26022E-01   -0.10184E-02  6416   0.265E-01    0.308E+00
DAV: 140    -0.361537292802E+04    0.11801E-02   -0.12428E-02  6104   0.141E-01    0.300E+00
DAV: 141    -0.361536084843E+04    0.12080E-01   -0.51214E-03  6256   0.860E-02    0.291E+00
DAV: 142    -0.361534480430E+04    0.16044E-01   -0.15461E-03  6256   0.757E-02    0.281E+00
DAV: 143    -0.361531648680E+04    0.28317E-01   -0.28601E-03  6280   0.113E-01    0.269E+00
DAV: 144    -0.361529035383E+04    0.26133E-01   -0.37938E-03  6352   0.101E-01    0.261E+00
DAV: 145    -0.361523176364E+04    0.58590E-01   -0.89080E-03  6184   0.191E-01    0.252E+00
DAV: 146    -0.361517930995E+04    0.52454E-01   -0.15307E-02  6272   0.184E-01    0.257E+00
DAV: 147    -0.361516420315E+04    0.15107E-01   -0.92351E-03  6064   0.773E-02    0.263E+00
DAV: 148    -0.361516277102E+04    0.14321E-02   -0.93073E-04  6056   0.223E-02    0.265E+00
DAV: 149    -0.361516106163E+04    0.17094E-02   -0.47512E-05  6096   0.677E-03    0.266E+00
DAV: 150    -0.361515183205E+04    0.92296E-02   -0.27604E-04  5752   0.229E-02    0.273E+00
DAV: 151    -0.361513761569E+04    0.14216E-01   -0.11018E-03  5600   0.419E-02    0.290E+00
DAV: 152    -0.361513851582E+04   -0.90013E-03   -0.26207E-04  5952   0.199E-02    0.285E+00
DAV: 153    -0.361513541525E+04    0.31006E-02   -0.20346E-04  6744   0.354E-02    0.281E+00
DAV: 154    -0.361513257948E+04    0.28358E-02   -0.58435E-04  6472   0.431E-02    0.275E+00
DAV: 155    -0.361512707814E+04    0.55013E-02   -0.96324E-04  6608   0.648E-02    0.267E+00
DAV: 156    -0.361511195497E+04    0.15123E-01   -0.86165E-03  6640   0.228E-01    0.242E+00
DAV: 157    -0.361510506014E+04    0.68948E-02   -0.17967E-02  6512   0.234E-01    0.220E+00
DAV: 158    -0.361510446073E+04    0.59941E-03   -0.20130E-02  6520   0.265E-01    0.204E+00
DAV: 159    -0.361511049427E+04   -0.60335E-02   -0.19452E-02  6504   0.224E-01    0.196E+00
DAV: 160    -0.361511486601E+04   -0.43717E-02   -0.13363E-02  6192   0.109E-01    0.194E+00
DAV: 161    -0.361521872859E+04   -0.10386E+00   -0.10999E-01  7016   0.106E+00    0.212E+00
DAV: 162    -0.361522826606E+04   -0.95375E-02   -0.94506E-02  5872   0.159E-01    0.214E+00
DAV: 163    -0.361522129371E+04    0.69723E-02   -0.16497E-03  6360   0.511E-02    0.213E+00
DAV: 164    -0.361521434416E+04    0.69496E-02   -0.74631E-04  5960   0.358E-02    0.217E+00
DAV: 165    -0.361519662075E+04    0.17723E-01   -0.13489E-03  6336   0.729E-02    0.227E+00
DAV: 166    -0.361521972586E+04   -0.23105E-01   -0.36235E-03  6296   0.164E-01    0.240E+00
DAV: 167    -0.361522610958E+04   -0.63837E-02   -0.23507E-03  6344   0.505E-02    0.247E+00
DAV: 168    -0.361522673991E+04   -0.63033E-03   -0.65080E-04  6016   0.173E-02    0.248E+00
DAV: 169    -0.361523164573E+04   -0.49058E-02   -0.11319E-04  6824   0.301E-02    0.252E+00
DAV: 170    -0.361524335883E+04   -0.11713E-01   -0.82609E-04  6552   0.719E-02    0.260E+00
DAV: 171    -0.361527535184E+04   -0.31993E-01   -0.59545E-03  6568   0.192E-01    0.289E+00
DAV: 172    -0.361528872179E+04   -0.13370E-01   -0.62911E-03  6224   0.712E-02    0.297E+00
DAV: 173    -0.361531180912E+04   -0.23087E-01   -0.17728E-03  6600   0.977E-02    0.310E+00
DAV: 174    -0.361535282498E+04   -0.41016E-01   -0.58981E-03  6536   0.157E-01    0.332E+00
DAV: 175    -0.361540036075E+04   -0.47536E-01   -0.10127E-02  6480   0.170E-01    0.358E+00
DAV: 176    -0.361517624197E+04    0.22412E+00   -0.33417E-01  6496   0.153E+00    0.147E+00
DAV: 177    -0.361518538178E+04   -0.91398E-02   -0.23577E-01  6056   0.317E-01    0.687E-01
DAV: 178    -0.361518706292E+04   -0.16811E-02   -0.19167E-02  6104   0.113E-01    0.506E-01
DAV: 179    -0.361518728017E+04   -0.21725E-03   -0.24082E-03  6176   0.402E-02    0.445E-01
DAV: 180    -0.361518657338E+04    0.70678E-03   -0.65266E-04  6072   0.341E-02    0.355E-01
DAV: 181    -0.361518421558E+04    0.23578E-02   -0.34240E-03  6640   0.138E-01    0.212E-01
DAV: 182    -0.361518445095E+04   -0.23537E-03   -0.23889E-03  5744   0.329E-02    0.172E-01
DAV: 183    -0.361518442639E+04    0.24568E-04   -0.19518E-04  6384   0.131E-02    0.148E-01
DAV: 184    -0.361518422118E+04    0.20521E-03   -0.17330E-04  6392   0.258E-02    0.102E-01
DAV: 185    -0.361518405280E+04    0.16837E-03   -0.29785E-04  6488   0.367E-02    0.791E-02
DAV: 186    -0.361518402772E+04    0.25086E-04   -0.32412E-04  6600   0.348E-02    0.757E-02
DAV: 187    -0.361518406511E+04   -0.37388E-04   -0.17699E-04  6512   0.401E-02    0.680E-02
DAV: 188    -0.361518413156E+04   -0.66449E-04   -0.40394E-04  6128   0.244E-02    0.733E-02
DAV: 189    -0.361518415229E+04   -0.20730E-04   -0.13267E-04  6056   0.111E-02    0.727E-02
DAV: 190    -0.361518413309E+04    0.19196E-04   -0.33699E-05  5760   0.783E-03    0.600E-02
DAV: 191    -0.361518407478E+04    0.58307E-04   -0.34448E-05  6080   0.136E-02    0.438E-02
DAV: 192    -0.361518404198E+04    0.32797E-04   -0.39879E-05  6440   0.120E-02    0.313E-02
DAV: 193    -0.361518401664E+04    0.25343E-04   -0.22233E-05  6520   0.155E-02    0.179E-02
DAV: 194    -0.361518401198E+04    0.46590E-05   -0.51257E-05  6344   0.133E-02    0.131E-02
DAV: 195    -0.361518401659E+04   -0.46086E-05   -0.51449E-05  5864   0.583E-03    0.970E-03
DAV: 196    -0.361518401680E+04   -0.20688E-06   -0.21134E-06  4920   0.157E-03
 augmentation electrons    1811.876269597415     
 soft         electrons    0.000000000000000     
 total        electrons    1811.876269597415     
 augmentation electrons  -7.7055417795935666E-002
 soft         electrons    0.000000000000000     
 total        electrons  -7.7055417795935666E-002
 augmentation electrons    1923.939188843761     
 soft         electrons    0.000000000000000     
 total        electrons    1923.939188843761     
 augmentation electrons    1866.422028971761     
 soft         electrons    0.000000000000000     
 total        electrons    1866.422028971761     
 augmentation electrons    54.77994290169597     
 soft         electrons    1757.096240859951     
 total        electrons    1811.876183761647     
 augmentation electrons    35.74374153873526     
 soft         electrons    1757.096240859951     
 total        electrons    59.92290769726020     
 translations:            0            1            0
   1 F= -.36530931E+04 E0= -.36530931E+04  d E =-.365309E+04  mag=    60.0000
 curvature:   0.00 expect dE= 0.000E+00 dE for cont linesearch  0.000E+00
 trial: gam= 0.00000 g(F)=  0.177E+00 g(S)=  0.000E+00 ort = 0.000E+00 (trialstep = 0.100E+01)
 search vector abs. value=  0.177E+00
 bond charge predicted
       N       E                     dE             d eps       ncg     rms          rms(c)
DAV:   1    -0.361526570164E+04   -0.81685E-01   -0.12552E+01  5200   0.244E+00    0.189E+00
DAV:   2    -0.361531968067E+04   -0.53979E-01   -0.65233E-01  6032   0.594E-01    0.121E+00
DAV:   3    -0.361531776686E+04    0.19138E-02   -0.21608E-02  6056   0.143E-01    0.595E-01
DAV:   4    -0.361531686307E+04    0.90379E-03   -0.17493E-03  6176   0.298E-02    0.400E-01
DAV:   5    -0.361531605836E+04    0.80471E-03   -0.16765E-03  6368   0.345E-02    0.222E-01
DAV:   6    -0.361531600878E+04    0.49583E-04   -0.11523E-03  6096   0.319E-02    0.350E-02
DAV:   7    -0.361531601350E+04   -0.47159E-05   -0.15412E-04  5936   0.969E-03    0.284E-02
DAV:   8    -0.361531601003E+04    0.34675E-05   -0.78147E-06  5224   0.285E-03    0.178E-02
DAV:   9    -0.361531600539E+04    0.46395E-05   -0.70974E-06  5232   0.294E-03    0.886E-03
DAV:  10    -0.361531600494E+04    0.44413E-06   -0.27567E-06  4840   0.145E-03
 augmentation electrons    1811.897234727761     
 soft         electrons    0.000000000000000     
 total        electrons    1811.897234727761     
 augmentation electrons  -7.7446206552438612E-002
 soft         electrons    0.000000000000000     
 total        electrons  -7.7446206552438612E-002
 augmentation electrons    1892.498433287692     
 soft         electrons    0.000000000000000     
 total        electrons    1892.498433287692     
 augmentation electrons    1834.981273415692     
 soft         electrons    0.000000000000000     
 total        electrons    1834.981273415692     
 augmentation electrons    54.80440131157676     
 soft         electrons    1757.092753424840     
 total        electrons    1811.897154736416     
 augmentation electrons    35.74848488218058     
 soft         electrons    1757.092753424840     
 total        electrons    59.92251650709827     
 translations:            0            1            0
   2 F= -.36532252E+04 E0= -.36532252E+04  d E =-.132127E+00  mag=    60.0000
 trial-energy change:   -0.132127  1 .order   -0.133505   -0.177447   -0.089563
 step:   2.3006(harm=  2.0191)  dis= 0.04123  next Energy= -3653.280434 (dE=-0.187E+00)
 bond charge predicted
       N       E                     dE             d eps       ncg     rms          rms(c)
DAV:   1    -0.361527094033E+04    0.45065E-01   -0.21193E+01  5168   0.317E+00    0.242E+00
DAV:   2    -0.361536222764E+04   -0.91287E-01   -0.10988E+00  6064   0.768E-01    0.154E+00
DAV:   3    -0.361535905945E+04    0.31682E-02   -0.35948E-02  6048   0.185E-01    0.770E-01
DAV:   4    -0.361535757710E+04    0.14824E-02   -0.28780E-03  6176   0.384E-02    0.513E-01
DAV:   5    -0.361535622603E+04    0.13511E-02   -0.27878E-03  6392   0.449E-02    0.285E-01
DAV:   6    -0.361535614823E+04    0.77796E-04   -0.19014E-03  6088   0.405E-02    0.484E-02
DAV:   7    -0.361535615778E+04   -0.95494E-05   -0.24719E-04  5936   0.123E-02    0.370E-02
DAV:   8    -0.361535615241E+04    0.53709E-05   -0.12574E-05  5696   0.361E-03    0.235E-02
DAV:   9    -0.361535614494E+04    0.74698E-05   -0.11842E-05  5472   0.381E-03    0.114E-02
DAV:  10    -0.361535614431E+04    0.63222E-06   -0.45893E-06  5208   0.184E-03
 augmentation electrons    1811.934382412107     
 soft         electrons    0.000000000000000     
 total        electrons    1811.934382412107     
 augmentation electrons  -7.7800737453679020E-002
 soft         electrons    0.000000000000000     
 total        electrons  -7.7800737453679020E-002
 augmentation electrons    1880.069336574267     
 soft         electrons    0.000000000000000     
 total        electrons    1880.069336574267     
 augmentation electrons    1822.552176702267     
 soft         electrons    0.000000000000000     
 total        electrons    1822.552176702267     
 augmentation electrons    54.84581053001829     
 soft         electrons    1757.088497907962     
 total        electrons    1811.934308437980     
 augmentation electrons    35.75053795595563     
 soft         electrons    1757.088497907962     
 total        electrons    59.92216170192462     
 translations:            0            1            0
   3 F= -.36532628E+04 E0= -.36532628E+04  d E =-.169737E+00  mag=    60.0000
 curvature:  -0.93 expect dE=-0.545E+00 dE for cont linesearch -0.345E-02
 trial: gam= 3.43819 g(F)=  0.584E+00 g(S)=  0.000E+00 ort =-0.256E-01 (trialstep = 0.892E-01)
 search vector abs. value=  0.251E+01
 bond charge predicted
       N       E                     dE             d eps       ncg     rms          rms(c)
DAV:   1    -0.361538874720E+04   -0.32602E-01   -0.14318E+00  5264   0.862E-01    0.624E-01
DAV:   2    -0.361539493883E+04   -0.61916E-02   -0.74549E-02  6000   0.202E-01    0.387E-01
DAV:   3    -0.361539470806E+04    0.23077E-03   -0.24526E-03  6056   0.489E-02    0.204E-01
DAV:   4    -0.361539460437E+04    0.10369E-03   -0.19429E-04  6160   0.104E-02    0.134E-01
DAV:   5    -0.361539450074E+04    0.10364E-03   -0.20127E-04  5944   0.127E-02    0.723E-02
DAV:   6    -0.361539449672E+04    0.40135E-05   -0.13514E-04  6056   0.107E-02    0.120E-02
DAV:   7    -0.361539449710E+04   -0.37503E-06   -0.15923E-05  5344   0.325E-03    0.875E-03
DAV:   8    -0.361539449671E+04    0.38556E-06   -0.87441E-07  4064   0.104E-03
 augmentation electrons    1811.943610925773     
 soft         electrons    0.000000000000000     
 total        electrons    1811.943610925773     
 augmentation electrons  -7.7788762078291857E-002
 soft         electrons    0.000000000000000     
 total        electrons  -7.7788762078291857E-002
 augmentation electrons    1878.860820270558     
 soft         electrons    0.000000000000000     
 total        electrons    1878.860820270558     
 augmentation electrons    1821.343660398558     
 soft         electrons    0.000000000000000     
 total        electrons    1821.343660398558     
 augmentation electrons    54.85498438660817     
 soft         electrons    1757.088552495964     
 total        electrons    1811.943536882572     
 augmentation electrons    35.75019783097123     
 soft         electrons    1757.088552495964     
 total        electrons    59.92217373150056     
 translations:            0            1            0
   4 F= -.36533002E+04 E0= -.36533002E+04  d E =-.373683E-01  mag=    60.0000
 trial-energy change:   -0.037368  1 .order   -0.037593   -0.044292   -0.030894
 step:   0.2950(harm=  0.2950)  dis= 0.02039  next Energy= -3653.336048 (dE=-0.732E-01)
 bond charge predicted
       N       E                     dE             d eps       ncg     rms          rms(c)
DAV:   1    -0.361540444325E+04   -0.99462E-02   -0.76246E+00  5224   0.199E+00    0.143E+00
DAV:   2    -0.361543732286E+04   -0.32880E-01   -0.39764E-01  6000   0.471E-01    0.897E-01
DAV:   3    -0.361543609945E+04    0.12234E-02   -0.13325E-02  6064   0.114E-01    0.472E-01
DAV:   4    -0.361543552621E+04    0.57324E-03   -0.10548E-03  6160   0.244E-02    0.310E-01
DAV:   5    -0.361543495314E+04    0.57307E-03   -0.10664E-03  6288   0.297E-02    0.169E-01
DAV:   6    -0.361543491854E+04    0.34605E-04   -0.74211E-04  6048   0.256E-02    0.298E-02
DAV:   7    -0.361543492160E+04   -0.30568E-05   -0.99806E-05  5944   0.807E-03    0.209E-02
DAV:   8    -0.361543491902E+04    0.25802E-05   -0.49453E-06  5000   0.244E-03    0.125E-02
DAV:   9    -0.361543491588E+04    0.31377E-05   -0.41291E-06  5016   0.246E-03    0.681E-03
DAV:  10    -0.361543491553E+04    0.34943E-06   -0.18718E-06  4680   0.127E-03
 augmentation electrons    1811.953902238410     
 soft         electrons    0.000000000000000     
 total        electrons    1811.953902238410     
 augmentation electrons  -7.7792562057030182E-002
 soft         electrons    0.000000000000000     
 total        electrons  -7.7792562057030182E-002
 augmentation electrons    1879.092631407560     
 soft         electrons    0.000000000000000     
 total        electrons    1879.092631407560     
 augmentation electrons    1821.575471535560     
 soft         electrons    0.000000000000000     
 total        electrons    1821.575471535560     
 augmentation electrons    54.86499438842939     
 soft         electrons    1757.088832420411     
 total        electrons    1811.953826808840     
 augmentation electrons    35.74836717314547     
 soft         electrons    1757.088832420411     
 total        electrons    59.92217011919256     
 translations:            0            1            0
   5 F= -.36533376E+04 E0= -.36533376E+04  d E =-.747698E-01  mag=    60.0000
 curvature:  -0.74 expect dE=-0.742E-01 dE for cont linesearch -0.100E-03
 trial: gam=-0.03314 g(F)=  0.996E-01 g(S)=  0.000E+00 ort = 0.183E-01 (trialstep = 0.130E+00)
 search vector abs. value=  0.101E+00
 bond charge predicted
       N       E                     dE             d eps       ncg     rms          rms(c)
DAV:   1    -0.361544502725E+04   -0.10111E-01   -0.17486E-01  5296   0.425E-01    0.148E-01
DAV:   2    -0.361544549768E+04   -0.47042E-03   -0.66152E-03  6168   0.758E-02    0.941E-02
DAV:   3    -0.361544545052E+04    0.47154E-04   -0.26680E-04  6232   0.175E-02    0.584E-02
DAV:   4    -0.361544543231E+04    0.18213E-04   -0.35246E-05  6208   0.565E-03    0.370E-02
DAV:   5    -0.361544542072E+04    0.11594E-04   -0.21998E-05  5800   0.548E-03    0.136E-02
DAV:   6    -0.361544542136E+04   -0.64400E-06   -0.11518E-05  6024   0.325E-03    0.358E-03
DAV:   7    -0.361544542126E+04    0.98553E-07   -0.68168E-07  3288   0.905E-04
 augmentation electrons    1811.951222268314     
 soft         electrons    0.000000000000000     
 total        electrons    1811.951222268314     
 augmentation electrons  -7.7793393105198658E-002
 soft         electrons    0.000000000000000     
 total        electrons  -7.7793393105198658E-002
 augmentation electrons    1879.248550718972     
 soft         electrons    0.000000000000000     
 total        electrons    1879.248550718972     
 augmentation electrons    1821.731390846971     
 soft         electrons    0.000000000000000     
 total        electrons    1821.731390846971     
 augmentation electrons    54.86157161117848     
 soft         electrons    1757.089575616338     
 total        electrons    1811.951147227517     
 augmentation electrons    35.74798233970809     
 soft         electrons    1757.089575616338     
 total        electrons    59.92216946676093     
 translations:            0            1            0
   6 F= -.36533481E+04 E0= -.36533481E+04  d E =-.105351E-01  mag=    60.0000
 trial-energy change:   -0.010535  1 .order   -0.010804   -0.012912   -0.008696
 step:   0.3993(harm=  0.3993)  dis= 0.00279  next Energy= -3653.357375 (dE=-0.198E-01)
 bond charge predicted
       N       E                     dE             d eps       ncg     rms          rms(c)
DAV:   1    -0.361545247699E+04   -0.70556E-02   -0.74410E-01  5264   0.877E-01    0.305E-01
DAV:   2    -0.361545449102E+04   -0.20140E-02   -0.28024E-02  6160   0.154E-01    0.188E-01
DAV:   3    -0.361545428704E+04    0.20398E-03   -0.11121E-03  6216   0.353E-02    0.119E-01
DAV:   4    -0.361545421242E+04    0.74616E-04   -0.14537E-04  6216   0.114E-02    0.758E-02
DAV:   5    -0.361545416494E+04    0.47478E-04   -0.91705E-05  6016   0.108E-02    0.267E-02
DAV:   6    -0.361545416749E+04   -0.25520E-05   -0.43884E-05  6256   0.630E-03    0.708E-03
DAV:   7    -0.361545416721E+04    0.28505E-06   -0.26390E-06  4296   0.173E-03
 augmentation electrons    1811.945500260390     
 soft         electrons    0.000000000000000     
 total        electrons    1811.945500260390     
 augmentation electrons  -7.7926310419143135E-002
 soft         electrons    0.000000000000000     
 total        electrons  -7.7926310419143135E-002
 augmentation electrons    1879.643206211983     
 soft         electrons    0.000000000000000     
 total        electrons    1879.643206211983     
 augmentation electrons    1822.126046339983     
 soft         electrons    0.000000000000000     
 total        electrons    1822.126046339983     
 augmentation electrons    54.85430926026638     
 soft         electrons    1757.091116721025     
 total        electrons    1811.945425981291     
 augmentation electrons    35.74705578078436     
 soft         electrons    1757.091116721025     
 total        electrons    59.92203692308629     
 translations:            0            1            0
   7 F= -.36533569E+04 E0= -.36533569E+04  d E =-.193340E-01  mag=    60.0000
 curvature:  -0.20 expect dE=-0.981E-02 dE for cont linesearch -0.563E-05
 trial: gam= 0.46277 g(F)=  0.481E-01 g(S)=  0.000E+00 ort = 0.167E-02 (trialstep = 0.184E+00)
 search vector abs. value=  0.713E-01
 bond charge predicted
       N       E                     dE             d eps       ncg     rms          rms(c)
DAV:   1    -0.361546130985E+04   -0.71424E-02   -0.19061E-01  5360   0.428E-01    0.205E-01
DAV:   2    -0.361546232561E+04   -0.10158E-02   -0.11165E-02  6032   0.785E-02    0.115E-01
DAV:   3    -0.361546231029E+04    0.15326E-04   -0.35118E-04  6120   0.180E-02    0.686E-02
DAV:   4    -0.361546229956E+04    0.10727E-04   -0.26311E-05  6152   0.426E-03    0.471E-02
DAV:   5    -0.361546228615E+04    0.13410E-04   -0.22166E-05  5752   0.482E-03    0.246E-02
DAV:   6    -0.361546228596E+04    0.19174E-06   -0.17635E-05  6112   0.382E-03    0.446E-03
DAV:   7    -0.361546228598E+04   -0.18917E-07   -0.20540E-06  4096   0.136E-03
 augmentation electrons    1811.941108024345     
 soft         electrons    0.000000000000000     
 total        electrons    1811.941108024345     
 augmentation electrons  -7.7841628348207154E-002
 soft         electrons    0.000000000000000     
 total        electrons  -7.7841628348207154E-002
 augmentation electrons    1880.204376529606     
 soft         electrons    0.000000000000000     
 total        electrons    1880.204376529606     
 augmentation electrons    1822.687216657605     
 soft         electrons    0.000000000000000     
 total        electrons    1822.687216657605     
 augmentation electrons    54.84897613888911     
 soft         electrons    1757.092057967551     
 total        electrons    1811.941034106440     
 augmentation electrons    35.74620975991046     
 soft         electrons    1757.092057967551     
 total        electrons    59.92212195495743     
 translations:            0            1            0
   8 F= -.36533647E+04 E0= -.36533647E+04  d E =-.774826E-02  mag=    60.0000
 trial-energy change:   -0.007748  1 .order   -0.007705   -0.009004   -0.006405
 step:   0.5351(harm=  0.6380)  dis= 0.00497  next Energy= -3653.371091 (dE=-0.142E-01)
 bond charge predicted
       N       E                     dE             d eps       ncg     rms          rms(c)
DAV:   1    -0.361546709646E+04   -0.48105E-02   -0.69157E-01  5352   0.815E-01    0.391E-01
DAV:   2    -0.361547077260E+04   -0.36761E-02   -0.40471E-02  6048   0.150E-01    0.219E-01
DAV:   3    -0.361547071734E+04    0.55256E-04   -0.12798E-03  6096   0.344E-02    0.131E-01
DAV:   4    -0.361547067800E+04    0.39342E-04   -0.95267E-05  6176   0.811E-03    0.898E-02
DAV:   5    -0.361547062839E+04    0.49609E-04   -0.79812E-05  6088   0.915E-03    0.470E-02
DAV:   6    -0.361547062676E+04    0.16360E-05   -0.63762E-05  6176   0.732E-03    0.850E-03
DAV:   7    -0.361547062688E+04   -0.11983E-06   -0.78130E-06  5392   0.260E-03
 augmentation electrons    1811.932382076799     
 soft         electrons    0.000000000000000     
 total        electrons    1811.932382076799     
 augmentation electrons  -7.7862421921600533E-002
 soft         electrons    0.000000000000000     
 total        electrons  -7.7862421921600533E-002
 augmentation electrons    1881.492770693288     
 soft         electrons    0.000000000000000     
 total        electrons    1881.492770693288     
 augmentation electrons    1823.975610821288     
 soft         electrons    0.000000000000000     
 total        electrons    1823.975610821288     
 augmentation electrons    54.83850413790768     
 soft         electrons    1757.093804471191     
 total        electrons    1811.932308609099     
 augmentation electrons    35.74438415291402     
 soft         electrons    1757.093804471191     
 total        electrons    59.92210184022659     
 translations:            0            1            0
   9 F= -.36533723E+04 E0= -.36533723E+04  d E =-.153662E-01  mag=    60.0000
 curvature:  -0.44 expect dE=-0.246E-01 dE for cont linesearch -0.430E-03
 trial: gam= 1.00229 g(F)=  0.556E-01 g(S)=  0.000E+00 ort = 0.833E-02 (trialstep = 0.126E+00)
 search vector abs. value=  0.144E+00
 bond charge predicted
       N       E                     dE             d eps       ncg     rms          rms(c)
DAV:   1    -0.361547765743E+04   -0.70307E-02   -0.16445E-01  5408   0.354E-01    0.205E-01
DAV:   2    -0.361547872268E+04   -0.10653E-02   -0.11245E-02  5920   0.688E-02    0.108E-01
DAV:   3    -0.361547871597E+04    0.67190E-05   -0.30931E-04  6032   0.155E-02    0.641E-02
DAV:   4    -0.361547870757E+04    0.84003E-05   -0.21954E-05  5776   0.346E-03    0.443E-02
DAV:   5    -0.361547869624E+04    0.11326E-04   -0.16470E-05  5488   0.381E-03    0.264E-02
DAV:   6    -0.361547869498E+04    0.12571E-05   -0.17113E-05  5848   0.357E-03    0.549E-03
DAV:   7    -0.361547869516E+04   -0.17339E-06   -0.26444E-06  4248   0.142E-03
 augmentation electrons    1811.925903863631     
 soft         electrons    0.000000000000000     
 total        electrons    1811.925903863631     
 augmentation electrons  -7.8170576942286615E-002
 soft         electrons    0.000000000000000     
 total        electrons  -7.8170576942286615E-002
 augmentation electrons    1882.316258342925     
 soft         electrons    0.000000000000000     
 total        electrons    1882.316258342925     
 augmentation electrons    1824.799098470925     
 soft         electrons    0.000000000000000     
 total        electrons    1824.799098470925     
 augmentation electrons    54.83129295272052     
 soft         electrons    1757.094537802585     
 total        electrons    1811.925830755306     
 augmentation electrons    35.74311620881018     
 soft         electrons    1757.094537802585     
 total        electrons    59.92179405095952     
 translations:            0            1            0
  10 F= -.36533799E+04 E0= -.36533799E+04  d E =-.756228E-02  mag=    60.0000
 ZBRENT: can't locate minimum, use default step
 trial-energy change:   -0.007562  1 .order   -0.007468   -0.008061   -0.006874
 step:   0.5041(harm=  0.8563)  dis= 0.00711  next Energy= -3653.399688 (dE=-0.274E-01)
 bond charge predicted
       N       E                     dE             d eps       ncg     rms          rms(c)
DAV:   1    -0.361548705826E+04   -0.83633E-02   -0.14777E+00  5384   0.106E+00    0.616E-01
DAV:   2    -0.361549658786E+04   -0.95296E-02   -0.10088E-01  5928   0.207E-01    0.326E-01
DAV:   3    -0.361549652923E+04    0.58630E-04   -0.28038E-03  6024   0.469E-02    0.194E-01
DAV:   4    -0.361549645371E+04    0.75516E-04   -0.19725E-04  6144   0.105E-02    0.134E-01
DAV:   5    -0.361549634957E+04    0.10415E-03   -0.14413E-04  6024   0.113E-02    0.806E-02
DAV:   6    -0.361549633449E+04    0.15076E-04   -0.15593E-04  6136   0.110E-02    0.167E-02
DAV:   7    -0.361549633632E+04   -0.18264E-05   -0.26520E-05  5856   0.439E-03    0.671E-03
DAV:   8    -0.361549633610E+04    0.22096E-06   -0.10977E-06  4120   0.101E-03
 augmentation electrons    1811.906732672473     
 soft         electrons    0.000000000000000     
 total        electrons    1811.906732672473     
 augmentation electrons  -7.8302084832651608E-002
 soft         electrons    0.000000000000000     
 total        electrons  -7.8302084832651608E-002
 augmentation electrons    1885.303093132844     
 soft         electrons    0.000000000000000     
 total        electrons    1885.303093132844     
 augmentation electrons    1827.785933260844     
 soft         electrons    0.000000000000000     
 total        electrons    1827.785933260844     
 augmentation electrons    54.81002375394991     
 soft         electrons    1757.096636324615     
 total        electrons    1811.906660078565     
 augmentation electrons    35.74005210283330     
 soft         electrons    1757.096636324615     
 total        electrons    59.92166365614121     
 translations:            0            1            0
  11 F= -.36533960E+04 E0= -.36533960E+04  d E =-.236749E-01  mag=    60.0000
 curvature:  -0.74 expect dE=-0.183E-01 dE for cont linesearch -0.432E-02
 ZBRENT: increasing intervall
 opt :   1.2603  next Energy= -3653.398584 (dE=-0.263E-01)
 bond charge predicted
       N       E                     dE             d eps       ncg     rms          rms(c)
DAV:   1    -0.361546618460E+04    0.30152E-01   -0.59120E+00  5360   0.213E+00    0.124E+00
DAV:   2    -0.361550422700E+04   -0.38042E-01   -0.40311E-01  5928   0.416E-01    0.659E-01
DAV:   3    -0.361550400770E+04    0.21929E-03   -0.11376E-02  6064   0.944E-02    0.393E-01
DAV:   4    -0.361550370803E+04    0.29967E-03   -0.79425E-04  6128   0.209E-02    0.271E-01
DAV:   5    -0.361550329544E+04    0.41260E-03   -0.54875E-04  6264   0.221E-02    0.165E-01
DAV:   6    -0.361550322462E+04    0.70814E-04   -0.64051E-04  6160   0.225E-02    0.344E-02
DAV:   7    -0.361550323279E+04   -0.81703E-05   -0.11290E-04  5928   0.898E-03    0.134E-02
DAV:   8    -0.361550323182E+04    0.97501E-06   -0.47128E-06  5088   0.203E-03
 augmentation electrons    1811.866220903390     
 soft         electrons    0.000000000000000     
 total        electrons    1811.866220903390     
 augmentation electrons  -7.8040255741332915E-002
 soft         electrons    0.000000000000000     
 total        electrons  -7.8040255741332915E-002
 augmentation electrons    1893.561761200765     
 soft         electrons    0.000000000000000     
 total        electrons    1893.561761200765     
 augmentation electrons    1836.044601328765     
 soft         electrons    0.000000000000000     
 total        electrons    1836.044601328765     
 augmentation electrons    54.76538594855843     
 soft         electrons    1757.100762592626     
 total        electrons    1811.866148541184     
 augmentation electrons    35.73425409402971     
 soft         electrons    1757.100762592626     
 total        electrons    59.92192774832078     
 translations:            0            1            0
  12 F= -.36533997E+04 E0= -.36533997E+04  d E =-.274055E-01  mag=    60.0000
 curvature:  -0.45 expect dE=-0.732E-01 dE for cont linesearch -0.132E-02
 ZBRENT: bracketing found
 ZBRENT: interpolating
 opt :   0.9461  next Energy= -3653.402945 (dE=-0.306E-01)
 bond charge predicted
       N       E                     dE             d eps       ncg     rms          rms(c)
DAV:   1    -0.361549864525E+04    0.45875E-02   -0.10197E+00  5392   0.882E-01    0.504E-01
DAV:   2    -0.361550522374E+04   -0.65785E-02   -0.69748E-02  5944   0.171E-01    0.271E-01
DAV:   3    -0.361550518278E+04    0.40960E-04   -0.19269E-03  6072   0.387E-02    0.160E-01
DAV:   4    -0.361550512826E+04    0.54516E-04   -0.13579E-04  6184   0.874E-03    0.110E-01
DAV:   5    -0.361550505263E+04    0.75632E-04   -0.10228E-04  5864   0.960E-03    0.658E-02
DAV:   6    -0.361550504003E+04    0.12596E-04   -0.10779E-04  6152   0.924E-03    0.136E-02
DAV:   7    -0.361550504119E+04   -0.11573E-05   -0.18685E-05  5848   0.373E-03    0.567E-03
DAV:   8    -0.361550504088E+04    0.30760E-06   -0.78106E-07  3896   0.868E-04
 augmentation electrons    1811.883967233406     
 soft         electrons    0.000000000000000     
 total        electrons    1811.883967233406     
 augmentation electrons  -7.8397477088947592E-002
 soft         electrons    0.000000000000000     
 total        electrons  -7.8397477088947592E-002
 augmentation electrons    1889.745428206401     
 soft         electrons    0.000000000000000     
 total        electrons    1889.745428206401     
 augmentation electrons    1832.228268334401     
 soft         electrons    0.000000000000000     
 total        electrons    1832.228268334401     
 augmentation electrons    54.78476604288876     
 soft         electrons    1757.099128683422     
 total        electrons    1811.883894726311     
 augmentation electrons    35.73645199006019     
 soft         electrons    1757.099128683422     
 total        electrons    59.92156958606252     
 translations:            0            1            0
  13 F= -.36534028E+04 E0= -.36534028E+04  d E =-.305361E-01  mag=    60.0000
 curvature:  -1.10 expect dE=-0.860E-01 dE for cont linesearch -0.829E-05
 trial: gam= 1.79288 g(F)=  0.784E-01 g(S)=  0.000E+00 ort =-0.104E-02 (trialstep = 0.777E-01)
 search vector abs. value=  0.537E+00
 bond charge predicted
       N       E                     dE             d eps       ncg     rms          rms(c)
DAV:   1    -0.361550983089E+04   -0.47897E-02   -0.22749E-01  5480   0.372E-01    0.238E-01
DAV:   2    -0.361551140345E+04   -0.15726E-02   -0.16294E-02  5928   0.745E-02    0.122E-01
DAV:   3    -0.361551140288E+04    0.56762E-06   -0.41478E-04  6024   0.165E-02    0.731E-02
DAV:   4    -0.361551139351E+04    0.93719E-05   -0.28474E-05  5848   0.373E-03    0.515E-02
DAV:   5    -0.361551138034E+04    0.13166E-04   -0.15033E-05  4968   0.344E-03    0.345E-02
DAV:   6    -0.361551137658E+04    0.37599E-05   -0.27069E-05  5816   0.445E-03    0.826E-03
DAV:   7    -0.361551137704E+04   -0.46296E-06   -0.56161E-06  5064   0.193E-03
 augmentation electrons    1811.877281856194     
 soft         electrons    0.000000000000000     
 total        electrons    1811.877281856194     
 augmentation electrons  -7.8327851583945562E-002
 soft         electrons    0.000000000000000     
 total        electrons  -7.8327851583945562E-002
 augmentation electrons    1891.554100003066     
 soft         electrons    0.000000000000000     
 total        electrons    1891.554100003066     
 augmentation electrons    1834.036940131066     
 soft         electrons    0.000000000000000     
 total        electrons    1834.036940131066     
 augmentation electrons    54.77760870877090     
 soft         electrons    1757.099600609225     
 total        electrons    1811.877209317996     
 augmentation electrons    35.73562811051112     
 soft         electrons    1757.099600609225     
 total        electrons    59.92163963267114     
 translations:            0            1            0
  14 F= -.36534085E+04 E0= -.36534085E+04  d E =-.568451E-02  mag=    60.0000
 ZBRENT: can't locate minimum, use default step
 trial-energy change:   -0.005685  1 .order   -0.005540   -0.005943   -0.005136
 step:   0.3108(harm=  0.5724)  dis= 0.00833  next Energy= -3653.424730 (dE=-0.219E-01)
 bond charge predicted
       N       E                     dE             d eps       ncg     rms          rms(c)
DAV:   1    -0.361551247302E+04   -0.10964E-02   -0.20475E+00  5464   0.111E+00    0.721E-01
DAV:   2    -0.361552667072E+04   -0.14198E-01   -0.14682E-01  5928   0.222E-01    0.363E-01
DAV:   3    -0.361552666589E+04    0.48266E-05   -0.36907E-03  6024   0.487E-02    0.219E-01
DAV:   4    -0.361552658250E+04    0.83396E-04   -0.25564E-04  6208   0.109E-02    0.155E-01
DAV:   5    -0.361552646233E+04    0.12016E-03   -0.14088E-04  5904   0.102E-02    0.103E-01
DAV:   6    -0.361552642994E+04    0.32395E-04   -0.23227E-04  6104   0.126E-02    0.244E-02
DAV:   7    -0.361552643378E+04   -0.38406E-05   -0.46201E-05  5904   0.539E-03    0.749E-03
DAV:   8    -0.361552643341E+04    0.37115E-06   -0.15683E-06  4392   0.119E-03
 augmentation electrons    1811.852936025919     
 soft         electrons    0.000000000000000     
 total        electrons    1811.852936025919     
 augmentation electrons  -7.7894622579994091E-002
 soft         electrons    0.000000000000000     
 total        electrons  -7.7894622579994091E-002
 augmentation electrons    1898.116835918873     
 soft         electrons    0.000000000000000     
 total        electrons    1898.116835918873     
 augmentation electrons    1840.599676046873     
 soft         electrons    0.000000000000000     
 total        electrons    1840.599676046873     
 augmentation electrons    54.75170802716799     
 soft         electrons    1757.101155917523     
 total        electrons    1811.852863944691     
 augmentation electrons    35.73342731677748     
 soft         electrons    1757.101155917523     
 total        electrons    59.92207410447601     
 translations:            0            1            0
  15 F= -.36534216E+04 E0= -.36534216E+04  d E =-.187448E-01  mag=    60.0000
 curvature:  -1.45 expect dE=-0.597E-01 dE for cont linesearch -0.480E-02
 ZBRENT: increasing intervall
 opt :   0.7771  next Energy= -3653.430098 (dE=-0.273E-01)
 bond charge predicted
       N       E                     dE             d eps       ncg     rms          rms(c)
DAV:   1    -0.361548344630E+04    0.42987E-01   -0.81914E+00  5456   0.222E+00    0.145E+00
DAV:   2    -0.361554017858E+04   -0.56732E-01   -0.58711E-01  5944   0.445E-01    0.731E-01
DAV:   3    -0.361554016887E+04    0.97027E-05   -0.14781E-02  6056   0.977E-02    0.440E-01
DAV:   4    -0.361553983749E+04    0.33138E-03   -0.10336E-03  6176   0.220E-02    0.314E-01
DAV:   5    -0.361553935199E+04    0.48550E-03   -0.57049E-04  6200   0.206E-02    0.207E-01
DAV:   6    -0.361553922040E+04    0.13159E-03   -0.93147E-04  6120   0.253E-02    0.493E-02
DAV:   7    -0.361553923570E+04   -0.15301E-04   -0.18538E-04  5944   0.108E-02    0.152E-02
DAV:   8    -0.361553923414E+04    0.15589E-05   -0.66804E-06  5480   0.236E-03    0.838E-03
DAV:   9    -0.361553923323E+04    0.91305E-06   -0.25922E-06  4656   0.183E-03
 augmentation electrons    1811.773672416923     
 soft         electrons    0.000000000000000     
 total        electrons    1811.773672416923     
 augmentation electrons  -7.6660710867760079E-002
 soft         electrons    0.000000000000000     
 total        electrons  -7.6660710867760079E-002
 augmentation electrons    1927.019415535476     
 soft         electrons    0.000000000000000     
 total        electrons    1927.019415535476     
 augmentation electrons    1869.502255663476     
 soft         electrons    0.000000000000000     
 total        electrons    1869.502255663476     
 augmentation electrons    54.66924544805948     
 soft         electrons    1757.104358274078     
 total        electrons    1811.773603722137     
 augmentation electrons    35.72925806375112     
 soft         electrons    1757.104358274078     
 total        electrons    59.92331034498217     
 translations:            0            1            0
  16 F= -.36534303E+04 E0= -.36534303E+04  d E =-.274336E-01  mag=    60.0000
 curvature:  -2.57 expect dE=-0.209E+00 dE for cont linesearch -0.449E-03
 trial: gam= 0.99713 g(F)=  0.815E-01 g(S)=  0.000E+00 ort =-0.968E-02 (trialstep = 0.196E+00)
 search vector abs. value=  0.596E+00
 bond charge predicted
       N       E                     dE             d eps       ncg     rms          rms(c)
DAV:   1    -0.361554270253E+04   -0.34684E-02   -0.16424E+00  5400   0.988E-01    0.578E-01
DAV:   2    -0.361555320155E+04   -0.10499E-01   -0.10870E-01  5968   0.190E-01    0.276E-01
DAV:   3    -0.361555317259E+04    0.28954E-04   -0.23571E-03  6088   0.378E-02    0.172E-01
DAV:   4    -0.361555311388E+04    0.58714E-04   -0.17484E-04  6200   0.934E-03    0.129E-01
DAV:   5    -0.361555301447E+04    0.99411E-04   -0.15374E-04  6024   0.107E-02    0.771E-02
DAV:   6    -0.361555300495E+04    0.95132E-05   -0.14554E-04  6200   0.949E-03    0.185E-02
DAV:   7    -0.361555300620E+04   -0.12485E-05   -0.23906E-05  5864   0.411E-03    0.559E-03
DAV:   8    -0.361555300594E+04    0.25783E-06   -0.12215E-06  4176   0.107E-03
 augmentation electrons    1811.738904606407     
 soft         electrons    0.000000000000000     
 total        electrons    1811.738904606407     
 augmentation electrons  -7.6718517382571100E-002
 soft         electrons    0.000000000000000     
 total        electrons  -7.6718517382571100E-002
 augmentation electrons    1955.997122554048     
 soft         electrons    0.000000000000000     
 total        electrons    1955.997122554048     
 augmentation electrons    1898.479962682048     
 soft         electrons    0.000000000000000     
 total        electrons    1898.479962682048     
 augmentation electrons    54.63547201429500     
 soft         electrons    1757.103365558255     
 total        electrons    1811.738837572550     
 augmentation electrons    35.72800252273402     
 soft         electrons    1757.103365558255     
 total        electrons    59.92325315714294     
 translations:            0            1            0
  17 F= -.36534420E+04 E0= -.36534420E+04  d E =-.117246E-01  mag=    60.0000
 trial-energy change:   -0.011725  1 .order   -0.012017   -0.014074   -0.009960
 step:   0.6706(harm=  0.6706)  dis= 0.01836  next Energy= -3653.454347 (dE=-0.241E-01)
 bond charge predicted
       N       E                     dE             d eps       ncg     rms          rms(c)
DAV:   1    -0.361550859188E+04    0.44414E-01   -0.96385E+00  5376   0.239E+00    0.141E+00
DAV:   2    -0.361557012623E+04   -0.61534E-01   -0.63772E-01  5960   0.460E-01    0.674E-01
DAV:   3    -0.361556993846E+04    0.18777E-03   -0.13882E-02  6096   0.923E-02    0.421E-01
DAV:   4    -0.361556958855E+04    0.34992E-03   -0.10458E-03  6184   0.230E-02    0.315E-01
DAV:   5    -0.361556899211E+04    0.59644E-03   -0.89242E-04  6192   0.261E-02    0.191E-01
DAV:   6    -0.361556892241E+04    0.69699E-04   -0.87787E-04  6200   0.237E-02    0.463E-02
DAV:   7    -0.361556893104E+04   -0.86272E-05   -0.15206E-04  5960   0.104E-02    0.140E-02
DAV:   8    -0.361556892900E+04    0.20393E-05   -0.80452E-06  5768   0.268E-03    0.620E-03
DAV:   9    -0.361556892811E+04    0.89354E-06   -0.16732E-06  4488   0.186E-03
 augmentation electrons    1811.707124022863     
 soft         electrons    0.000000000000000     
 total        electrons    1811.707124022863     
 augmentation electrons  -7.5638280233330760E-002
 soft         electrons    0.000000000000000     
 total        electrons  -7.5638280233330760E-002
 augmentation electrons    2048.183987030603     
 soft         electrons    0.000000000000000     
 total        electrons    2048.183987030603     
 augmentation electrons    1990.666827158604     
 soft         electrons    0.000000000000000     
 total        electrons    1990.666827158604     
 augmentation electrons    54.60599464702863     
 soft         electrons    1757.101065730207     
 total        electrons    1811.707060377236     
 augmentation electrons    35.72625857005630     
 soft         electrons    1757.101065730207     
 total        electrons    59.92433470063167     
 translations:            0            1            0
  18 F= -.36534529E+04 E0= -.36534529E+04  d E =-.226065E-01  mag=    60.0000
 curvature:  -2.79 expect dE=-0.192E+00 dE for cont linesearch -0.143E-03
 trial: gam= 0.74315 g(F)=  0.689E-01 g(S)=  0.000E+00 ort =-0.554E-02 (trialstep = 0.291E+00)
 search vector abs. value=  0.390E+00
 bond charge predicted
       N       E                     dE             d eps       ncg     rms          rms(c)
DAV:   1    -0.361557255565E+04   -0.36267E-02   -0.23733E+00  5344   0.131E+00    0.636E-01
DAV:   2    -0.361558613073E+04   -0.13575E-01   -0.14308E-01  5896   0.235E-01    0.293E-01
DAV:   3    -0.361558601711E+04    0.11362E-03   -0.28258E-03  6112   0.427E-02    0.187E-01
DAV:   4    -0.361558590011E+04    0.11700E-03   -0.24907E-04  6208   0.127E-02    0.141E-01
DAV:   5    -0.361558576056E+04    0.13955E-03   -0.36503E-04  6144   0.193E-02    0.570E-02
DAV:   6    -0.361558576976E+04   -0.91982E-05   -0.12364E-04  6208   0.809E-03    0.115E-02
DAV:   7    -0.361558576867E+04    0.10888E-05   -0.77649E-06  5672   0.278E-03    0.542E-03
DAV:   8    -0.361558576829E+04    0.37885E-06   -0.16696E-06  4176   0.146E-03
 augmentation electrons    1811.668418687433     
 soft         electrons    0.000000000000000     
 total        electrons    1811.668418687433     
 augmentation electrons  -7.3504639585031908E-002
 soft         electrons    0.000000000000000     
 total        electrons  -7.3504639585031908E-002
 augmentation electrons    2039.253428267856     
 soft         electrons    0.000000000000000     
 total        electrons    2039.253428267856     
 augmentation electrons    1981.736268395855     
 soft         electrons    0.000000000000000     
 total        electrons    1981.736268395855     
 augmentation electrons    54.56982628951861     
 soft         electrons    1757.098528941917     
 total        electrons    1811.668355231436     
 augmentation electrons    35.72914018947289     
 soft         electrons    1757.098528941917     
 total        electrons    59.92646830855220     
 translations:            0            1            0
  19 F= -.36534661E+04 E0= -.36534661E+04  d E =-.132485E-01  mag=    60.0000
 trial-energy change:   -0.013249  1 .order   -0.014368   -0.018842   -0.009895
 step:   0.6127(harm=  0.6127)  dis= 0.01687  next Energy= -3653.472720 (dE=-0.198E-01)
 bond charge predicted
       N       E                     dE             d eps       ncg     rms          rms(c)
DAV:   1    -0.361557633615E+04    0.94325E-02   -0.29037E+00  5344   0.145E+00    0.704E-01
DAV:   2    -0.361559293889E+04   -0.16603E-01   -0.17507E-01  5896   0.260E-01    0.324E-01
DAV:   3    -0.361559279662E+04    0.14227E-03   -0.34623E-03  6112   0.474E-02    0.206E-01
DAV:   4    -0.361559265254E+04    0.14408E-03   -0.30696E-04  6208   0.141E-02    0.155E-01
DAV:   5    -0.361559248074E+04    0.17180E-03   -0.44576E-04  6200   0.215E-02    0.630E-02
DAV:   6    -0.361559249171E+04   -0.10973E-04   -0.15233E-04  6224   0.908E-03    0.128E-02
DAV:   7    -0.361559249034E+04    0.13704E-05   -0.99631E-06  5856   0.315E-03    0.605E-03
DAV:   8    -0.361559248980E+04    0.53959E-06   -0.20073E-06  4312   0.164E-03
 augmentation electrons    1811.668018226421     
 soft         electrons    0.000000000000000     
 total        electrons    1811.668018226421     
 augmentation electrons  -7.1099468822084358E-002
 soft         electrons    0.000000000000000     
 total        electrons  -7.1099468822084358E-002
 augmentation electrons    2037.818832596655     
 soft         electrons    0.000000000000000     
 total        electrons    2037.818832596655     
 augmentation electrons    1980.301672724655     
 soft         electrons    0.000000000000000     
 total        electrons    1980.301672724655     
 augmentation electrons    54.57224602041412     
 soft         electrons    1757.095708229227     
 total        electrons    1811.667954249641     
 augmentation electrons    35.73243167978620     
 soft         electrons    1757.095708229227     
 total        electrons    59.92887341366242     
 translations:            0            1            0
  20 F= -.36534688E+04 E0= -.36534688E+04  d E =-.159653E-01  mag=    60.0000
 curvature:  -1.85 expect dE=-0.142E+00 dE for cont linesearch -0.294E-03
 trial: gam= 1.12499 g(F)=  0.767E-01 g(S)=  0.000E+00 ort =-0.789E-02 (trialstep = 0.251E+00)
 search vector abs. value=  0.553E+00
 bond charge predicted
       N       E                     dE             d eps       ncg     rms          rms(c)
DAV:   1    -0.361559341301E+04   -0.92266E-03   -0.24150E+00  5288   0.135E+00    0.688E-01
DAV:   2    -0.361560804914E+04   -0.14636E-01   -0.15299E-01  5960   0.251E-01    0.325E-01
DAV:   3    -0.361560798532E+04    0.63820E-04   -0.31917E-03  6112   0.488E-02    0.204E-01
DAV:   4    -0.361560789909E+04    0.86225E-04   -0.24976E-04  6160   0.125E-02    0.155E-01
DAV:   5    -0.361560775176E+04    0.14733E-03   -0.26921E-04  6184   0.163E-02    0.838E-02
DAV:   6    -0.361560774821E+04    0.35549E-05   -0.17745E-04  6216   0.111E-02    0.192E-02
DAV:   7    -0.361560774882E+04   -0.61303E-06   -0.25846E-05  5920   0.469E-03    0.679E-03
DAV:   8    -0.361560774819E+04    0.63003E-06   -0.20289E-06  4368   0.159E-03
 augmentation electrons    1811.700057428377     
 soft         electrons    0.000000000000000     
 total        electrons    1811.700057428377     
 augmentation electrons  -6.9217100650315916E-002
 soft         electrons    0.000000000000000     
 total        electrons  -6.9217100650315916E-002
 augmentation electrons    2051.563289317023     
 soft         electrons    0.000000000000000     
 total        electrons    2051.563289317023     
 augmentation electrons    1994.046129445023     
 soft         electrons    0.000000000000000     
 total        electrons    1994.046129445023     
 augmentation electrons    54.60741301625555     
 soft         electrons    1757.092579670131     
 total        electrons    1811.699992686386     
 augmentation electrons    35.73731310765379     
 soft         electrons    1757.092579670131     
 total        electrons    59.93075540469351     
 translations:            0            1            0
  21 F= -.36534815E+04 E0= -.36534815E+04  d E =-.126553E-01  mag=    60.0000
 trial-energy change:   -0.012655  1 .order   -0.013260   -0.017007   -0.009513
 step:   0.5691(harm=  0.5691)  dis= 0.02094  next Energy= -3653.488143 (dE=-0.193E-01)
 bond charge predicted
       N       E                     dE             d eps       ncg     rms          rms(c)
DAV:   1    -0.361559443208E+04    0.13317E-01   -0.38921E+00  5288   0.172E+00    0.874E-01
DAV:   2    -0.361561804513E+04   -0.23613E-01   -0.24690E-01  5952   0.319E-01    0.414E-01
DAV:   3    -0.361561793932E+04    0.10581E-03   -0.51761E-03  6120   0.624E-02    0.260E-01
DAV:   4    -0.361561779999E+04    0.13932E-03   -0.40425E-04  6152   0.160E-02    0.197E-01
DAV:   5    -0.361561756048E+04    0.23951E-03   -0.43265E-04  6280   0.208E-02    0.107E-01
DAV:   6    -0.361561755361E+04    0.68663E-05   -0.29037E-04  6208   0.144E-02    0.246E-02
DAV:   7    -0.361561755480E+04   -0.11882E-05   -0.43647E-05  5960   0.611E-03    0.871E-03
DAV:   8    -0.361561755373E+04    0.10673E-05   -0.33395E-06  4696   0.205E-03    0.399E-03
DAV:   9    -0.361561755332E+04    0.41828E-06   -0.80629E-07  4040   0.131E-03
 augmentation electrons    1811.750660462061     
 soft         electrons    0.000000000000000     
 total        electrons    1811.750660462061     
 augmentation electrons  -6.5864627578969284E-002
 soft         electrons    0.000000000000000     
 total        electrons  -6.5864627578969284E-002
 augmentation electrons    2099.196376699374     
 soft         electrons    0.000000000000000     
 total        electrons    2099.196376699374     
 augmentation electrons    2041.679216827373     
 soft         electrons    0.000000000000000     
 total        electrons    2041.679216827373     
 augmentation electrons    54.66192834181176     
 soft         electrons    1757.088666685246     
 total        electrons    1811.750595027057     
 augmentation electrons    35.74448293348717     
 soft         electrons    1757.088666685246     
 total        electrons    59.93410746396267     
 translations:            0            1            0
  22 F= -.36534880E+04 E0= -.36534880E+04  d E =-.191323E-01  mag=    60.0000
 curvature:  -2.32 expect dE=-0.984E-01 dE for cont linesearch -0.335E-03
 ZBRENT: extrapolating
 opt :   0.6672  next Energy= -3653.488416 (dE=-0.196E-01)
 bond charge predicted
       N       E                     dE             d eps       ncg     rms          rms(c)
DAV:   1    -0.361561640496E+04    0.11488E-02   -0.36900E-01  5320   0.531E-01    0.271E-01
DAV:   2    -0.361561864778E+04   -0.22428E-02   -0.23439E-02  5952   0.987E-02    0.127E-01
DAV:   3    -0.361561863847E+04    0.93059E-05   -0.49056E-04  6128   0.192E-02    0.803E-02
DAV:   4    -0.361561862562E+04    0.12850E-04   -0.37872E-05  6080   0.486E-03    0.610E-02
DAV:   5    -0.361561860358E+04    0.22041E-04   -0.40109E-05  5816   0.622E-03    0.332E-02
DAV:   6    -0.361561860307E+04    0.50698E-06   -0.27204E-05  6160   0.428E-03    0.758E-03
DAV:   7    -0.361561860317E+04   -0.10059E-06   -0.36146E-06  4600   0.178E-03
 augmentation electrons    1811.758973005938     
 soft         electrons    0.000000000000000     
 total        electrons    1811.758973005938     
 augmentation electrons  -6.6053246228367807E-002
 soft         electrons    0.000000000000000     
 total        electrons  -6.6053246228367807E-002
 augmentation electrons    2099.187314994184     
 soft         electrons    0.000000000000000     
 total        electrons    2099.187314994184     
 augmentation electrons    2041.670155122184     
 soft         electrons    0.000000000000000     
 total        electrons    2041.670155122184     
 augmentation electrons    54.67145434893762     
 soft         electrons    1757.087453095293     
 total        electrons    1811.758907444231     
 augmentation electrons    35.74547554545740     
 soft         electrons    1757.087453095293     
 total        electrons    59.93391873192951     
 translations:            0            1            0
  23 F= -.36534880E+04 E0= -.36534880E+04  d E =-.191484E-01  mag=    60.0000
 curvature:  -3.03 expect dE=-0.160E+00 dE for cont linesearch -0.602E-04
 trial: gam= 0.58528 g(F)=  0.528E-01 g(S)=  0.000E+00 ort =-0.331E-02 (trialstep = 0.334E+00)
 search vector abs. value=  0.238E+00
 bond charge predicted
       N       E                     dE             d eps       ncg     rms          rms(c)
DAV:   1    -0.361562174007E+04   -0.31370E-02   -0.19360E+00  5200   0.128E+00    0.657E-01
DAV:   2    -0.361563234265E+04   -0.10603E-01   -0.11641E-01  5968   0.240E-01    0.341E-01
DAV:   3    -0.361563216763E+04    0.17503E-03   -0.29005E-03  6096   0.514E-02    0.209E-01
DAV:   4    -0.361563206564E+04    0.10199E-03   -0.24425E-04  6184   0.126E-02    0.149E-01
DAV:   5    -0.361563190982E+04    0.15582E-03   -0.29357E-04  6264   0.183E-02    0.733E-02
DAV:   6    -0.361563190984E+04   -0.23145E-07   -0.15925E-04  6152   0.114E-02    0.136E-02
DAV:   7    -0.361563190989E+04   -0.50146E-07   -0.18897E-05  5928   0.408E-03    0.661E-03
DAV:   8    -0.361563190946E+04    0.43620E-06   -0.14989E-06  4216   0.132E-03
 augmentation electrons    1811.760582876579     
 soft         electrons    0.000000000000000     
 total        electrons    1811.760582876579     
 augmentation electrons  -6.7859638906983488E-002
 soft         electrons    0.000000000000000     
 total        electrons  -6.7859638906983488E-002
 augmentation electrons    2067.936813951537     
 soft         electrons    0.000000000000000     
 total        electrons    2067.936813951537     
 augmentation electrons    2010.419654079537     
 soft         electrons    0.000000000000000     
 total        electrons    2010.419654079537     
 augmentation electrons    54.67297837156727     
 soft         electrons    1757.087538569690     
 total        electrons    1811.760516941257     
 augmentation electrons    35.74772528223129     
 soft         electrons    1757.087538569690     
 total        electrons    59.93211206066646     
 translations:            0            1            0
  24 F= -.36534998E+04 E0= -.36534998E+04  d E =-.117587E-01  mag=    60.0000
 trial-energy change:   -0.011759  1 .order   -0.011888   -0.016984   -0.006792
 step:   0.5913(harm=  0.5567)  dis= 0.01498  next Energy= -3653.502308 (dE=-0.143E-01)
 bond charge predicted
       N       E                     dE             d eps       ncg     rms          rms(c)
DAV:   1    -0.361562896533E+04    0.29446E-02   -0.11469E+00  5240   0.985E-01    0.507E-01
DAV:   2    -0.361563523196E+04   -0.62666E-02   -0.68860E-02  5968   0.185E-01    0.262E-01
DAV:   3    -0.361563512972E+04    0.10223E-03   -0.17195E-03  6080   0.396E-02    0.161E-01
DAV:   4    -0.361563506955E+04    0.60170E-04   -0.14370E-04  6208   0.969E-03    0.115E-01
DAV:   5    -0.361563497799E+04    0.91560E-04   -0.17552E-04  6096   0.140E-02    0.559E-02
DAV:   6    -0.361563497856E+04   -0.56610E-06   -0.92572E-05  6152   0.860E-03    0.103E-02
DAV:   7    -0.361563497854E+04    0.15738E-07   -0.10140E-05  5680   0.303E-03    0.507E-03
DAV:   8    -0.361563497835E+04    0.19728E-06   -0.88226E-07  3800   0.101E-03
 augmentation electrons    1811.758962320367     
 soft         electrons    0.000000000000000     
 total        electrons    1811.758962320367     
 augmentation electrons  -6.8921415935918454E-002
 soft         electrons    0.000000000000000     
 total        electrons  -6.8921415935918454E-002
 augmentation electrons    2051.193497706890     
 soft         electrons    0.000000000000000     
 total        electrons    2051.193497706890     
 augmentation electrons    1993.676337834890     
 soft         electrons    0.000000000000000     
 total        electrons    1993.676337834890     
 augmentation electrons    54.67130144338724     
 soft         electrons    1757.087595036109     
 total        electrons    1811.758896479496     
 augmentation electrons    35.74973514149802     
 soft         electrons    1757.087595036109     
 total        electrons    59.93105012850684     
 translations:            0            1            0
  25 F= -.36535016E+04 E0= -.36535016E+04  d E =-.135969E-01  mag=    60.0000
 curvature:  -1.27 expect dE=-0.646E-01 dE for cont linesearch -0.295E-03
 trial: gam= 1.20541 g(F)=  0.507E-01 g(S)=  0.000E+00 ort =-0.743E-02 (trialstep = 0.242E+00)
 search vector abs. value=  0.379E+00
 bond charge predicted
       N       E                     dE             d eps       ncg     rms          rms(c)
DAV:   1    -0.361563621504E+04   -0.12365E-02   -0.15308E+00  5200   0.105E+00    0.613E-01
DAV:   2    -0.361564459304E+04   -0.83780E-02   -0.90937E-02  5984   0.204E-01    0.325E-01
DAV:   3    -0.361564449207E+04    0.10097E-03   -0.22887E-03  6096   0.456E-02    0.196E-01
DAV:   4    -0.361564442731E+04    0.64761E-04   -0.18078E-04  6208   0.106E-02    0.137E-01
DAV:   5    -0.361564432738E+04    0.99930E-04   -0.17768E-04  6112   0.132E-02    0.761E-02
DAV:   6    -0.361564432200E+04    0.53802E-05   -0.13155E-04  6120   0.103E-02    0.147E-02
DAV:   7    -0.361564432290E+04   -0.89855E-06   -0.21459E-05  5888   0.399E-03    0.694E-03
DAV:   8    -0.361564432252E+04    0.37841E-06   -0.11588E-06  4072   0.112E-03
 augmentation electrons    1811.750655625223     
 soft         electrons    0.000000000000000     
 total        electrons    1811.750655625223     
 augmentation electrons  -6.9491894494743203E-002
 soft         electrons    0.000000000000000     
 total        electrons  -6.9491894494743203E-002
 augmentation electrons    2039.867830953642     
 soft         electrons    0.000000000000000     
 total        electrons    2039.867830953642     
 augmentation electrons    1982.350671081642     
 soft         electrons    0.000000000000000     
 total        electrons    1982.350671081642     
 augmentation electrons    54.66158392618382     
 soft         electrons    1757.089006769005     
 total        electrons    1811.750590695189     
 augmentation electrons    35.75328924065631     
 soft         electrons    1757.089006769005     
 total        electrons    59.93047957152241     
 translations:            0            1            0
  26 F= -.36535100E+04 E0= -.36535100E+04  d E =-.836561E-02  mag=    60.0000
 trial-energy change:   -0.008366  1 .order   -0.007915   -0.010123   -0.005708
 step:   0.3985(harm=  0.5556)  dis= 0.01324  next Energy= -3653.511915 (dE=-0.103E-01)
 bond charge predicted
       N       E                     dE             d eps       ncg     rms          rms(c)
DAV:   1    -0.361564429220E+04    0.30702E-04   -0.63586E-01  5200   0.679E-01    0.397E-01
DAV:   2    -0.361564778868E+04   -0.34965E-02   -0.37935E-02  5992   0.133E-01    0.212E-01
DAV:   3    -0.361564774637E+04    0.42311E-04   -0.97198E-04  6096   0.298E-02    0.128E-01
DAV:   4    -0.361564771939E+04    0.26984E-04   -0.75207E-05  6192   0.688E-03    0.893E-02
DAV:   5    -0.361564767776E+04    0.41624E-04   -0.69511E-05  5824   0.820E-03    0.510E-02
DAV:   6    -0.361564767432E+04    0.34439E-05   -0.57695E-05  6112   0.682E-03    0.995E-03
DAV:   7    -0.361564767481E+04   -0.49240E-06   -0.96872E-06  5536   0.266E-03
 augmentation electrons    1811.742529949527     
 soft         electrons    0.000000000000000     
 total        electrons    1811.742529949527     
 augmentation electrons  -6.9860099621938135E-002
 soft         electrons    0.000000000000000     
 total        electrons  -6.9860099621938135E-002
 augmentation electrons    2033.541032285787     
 soft         electrons    0.000000000000000     
 total        electrons    2033.541032285787     
 augmentation electrons    1976.023872413787     
 soft         electrons    0.000000000000000     
 total        electrons    1976.023872413787     
 augmentation electrons    54.65253473386906     
 soft         electrons    1757.089931453034     
 total        electrons    1811.742466186903     
 augmentation electrons    35.75554887919333     
 soft         electrons    1757.089931453034     
 total        electrons    59.93011135586693     
 translations:            0            1            0
  27 F= -.36535127E+04 E0= -.36535127E+04  d E =-.110617E-01  mag=    60.0000
 curvature:  -1.89 expect dE=-0.576E-01 dE for cont linesearch -0.267E-03
 ZBRENT: extrapolating
 opt :   0.4689  next Energy= -3653.512910 (dE=-0.113E-01)
 bond charge predicted
       N       E                     dE             d eps       ncg     rms          rms(c)
DAV:   1    -0.361564763672E+04    0.37602E-04   -0.12918E-01  5232   0.306E-01    0.180E-01
DAV:   2    -0.361564835288E+04   -0.71616E-03   -0.77375E-03  5984   0.596E-02    0.938E-02
DAV:   3    -0.361564834384E+04    0.90409E-05   -0.19456E-04  6088   0.133E-02    0.578E-02
DAV:   4    -0.361564833836E+04    0.54790E-05   -0.15017E-05  5256   0.309E-03    0.401E-02
DAV:   5    -0.361564832966E+04    0.86995E-05   -0.14580E-05  5240   0.376E-03    0.228E-02
DAV:   6    -0.361564832887E+04    0.78444E-06   -0.11579E-05  5128   0.300E-03    0.455E-03
DAV:   7    -0.361564832897E+04   -0.93998E-07   -0.17449E-06  3864   0.119E-03
 augmentation electrons    1811.738273370059     
 soft         electrons    0.000000000000000     
 total        electrons    1811.738273370059     
 augmentation electrons  -6.9993873701189827E-002
 soft         electrons    0.000000000000000     
 total        electrons  -6.9993873701189827E-002
 augmentation electrons    2030.901993918453     
 soft         electrons    0.000000000000000     
 total        electrons    2030.901993918453     
 augmentation electrons    1973.384834046453     
 soft         electrons    0.000000000000000     
 total        electrons    1973.384834046453     
 augmentation electrons    54.64788518334139     
 soft         electrons    1757.090325088934     
 total        electrons    1811.738210272276     
 augmentation electrons    35.75655836754677     
 soft         electrons    1757.090325088934     
 total        electrons    59.92997758702020     
 translations:            0            1            0
  28 F= -.36535130E+04 E0= -.36535130E+04  d E =-.114113E-01  mag=    60.0000
 curvature:  -1.82 expect dE=-0.581E-01 dE for cont linesearch -0.192E-05
 trial: gam= 0.12336 g(F)=  0.319E-01 g(S)=  0.000E+00 ort =-0.632E-03 (trialstep = 0.288E+00)
 search vector abs. value=  0.375E-01
 bond charge predicted
       N       E                     dE             d eps       ncg     rms          rms(c)
DAV:   1    -0.361565292876E+04   -0.45999E-02   -0.31805E-01  5168   0.540E-01    0.181E-01
DAV:   2    -0.361565339930E+04   -0.47055E-03   -0.97129E-03  6128   0.893E-02    0.112E-01
DAV:   3    -0.361565324919E+04    0.15011E-03   -0.44353E-04  6248   0.217E-02    0.710E-02
DAV:   4    -0.361565320127E+04    0.47919E-04   -0.10157E-04  6128   0.964E-03    0.415E-02
DAV:   5    -0.361565318877E+04    0.12504E-04   -0.33559E-05  5920   0.593E-03    0.106E-02
DAV:   6    -0.361565318917E+04   -0.40440E-06   -0.89747E-06  5248   0.291E-03
 augmentation electrons    1811.735619207283     
 soft         electrons    0.000000000000000     
 total        electrons    1811.735619207283     
 augmentation electrons  -6.9751269446567038E-002
 soft         electrons    0.000000000000000     
 total        electrons  -6.9751269446567038E-002
 augmentation electrons    2033.895228939122     
 soft         electrons    0.000000000000000     
 total        electrons    2033.895228939122     
 augmentation electrons    1976.378069067122     
 soft         electrons    0.000000000000000     
 total        electrons    1976.378069067122     
 augmentation electrons    54.64435700850483     
 soft         electrons    1757.091199788691     
 total        electrons    1811.735556797196     
 augmentation electrons    35.75773355048189     
 soft         electrons    1757.091199788691     
 total        electrons    59.93022029484264     
 translations:            0            1            0
  29 F= -.36535182E+04 E0= -.36535182E+04  d E =-.522647E-02  mag=    60.0000
 trial-energy change:   -0.005226  1 .order   -0.005030   -0.009148   -0.000912
 step:   0.3152(harm=  0.3195)  dis= 0.00153  next Energy= -3653.518272 (dE=-0.527E-02)
 bond charge predicted
       N       E                     dE             d eps       ncg     rms          rms(c)
DAV:   1    -0.361565322334E+04   -0.34569E-04   -0.29714E-03  5320   0.521E-02    0.183E-02
DAV:   2    -0.361565322732E+04   -0.39757E-05   -0.93865E-05  6136   0.866E-03    0.107E-02
DAV:   3    -0.361565322554E+04    0.17740E-05   -0.42545E-06  5400   0.211E-03    0.648E-03
DAV:   4    -0.361565322499E+04    0.55449E-06   -0.13550E-06  3360   0.121E-03
 augmentation electrons    1811.735329315775     
 soft         electrons    0.000000000000000     
 total        electrons    1811.735329315775     
 augmentation electrons  -6.9760937639515366E-002
 soft         electrons    0.000000000000000     
 total        electrons  -6.9760937639515366E-002
 augmentation electrons    2034.185600959175     
 soft         electrons    0.000000000000000     
 total        electrons    2034.185600959175     
 augmentation electrons    1976.668441087175     
 soft         electrons    0.000000000000000     
 total        electrons    1976.668441087175     
 augmentation electrons    54.64396279683990     
 soft         electrons    1757.091304175326     
 total        electrons    1811.735266972166     
 augmentation electrons    35.75780047221296     
 soft         electrons    1757.091304175326     
 total        electrons    59.93021063662154     
 translations:            0            1            0
  30 F= -.36535183E+04 E0= -.36535183E+04  d E =-.530011E-02  mag=    60.0000
 curvature:  -0.18 expect dE=-0.113E-02 dE for cont linesearch -0.124E-05
 trial: gam= 0.17630 g(F)=  0.611E-02 g(S)=  0.000E+00 ort = 0.501E-03 (trialstep = 0.293E+00)
 search vector abs. value=  0.745E-02
 bond charge predicted
[...]
DAV:   5    -0.361572238287E+04    0.32113E-05   -0.90329E-06  5848   0.394E-03    0.739E-03
DAV:   6    -0.361572238316E+04   -0.28725E-06   -0.30254E-06  4416   0.171E-03
 augmentation electrons    1811.898995984736     
 soft         electrons    0.000000000000000     
 total        electrons    1811.898995984736     
 augmentation electrons  -7.6330990873274440E-002
 soft         electrons    0.000000000000000     
 total        electrons  -7.6330990873274440E-002
 augmentation electrons    2020.590879610444     
 soft         electrons    0.000000000000000     
 total        electrons    2020.590879610444     
 augmentation electrons    1963.073719738444     
 soft         electrons    0.000000000000000     
 total        electrons    1963.073719738444     
 augmentation electrons    54.80452091302740     
 soft         electrons    1757.094421999623     
 total        electrons    1811.898942912650     
 augmentation electrons    35.74574412866254     
 soft         electrons    1757.094421999623     
 total        electrons    59.92364186008150     
 translations:            0            1            0
 130 F= -.36535998E+04 E0= -.36535998E+04  d E =-.881251E-03  mag=    60.0000
 trial-energy change:   -0.000881  1 .order   -0.000857   -0.001252   -0.000463
 step:   0.4897(harm=  0.5313)  dis= 0.00118  next Energy= -3653.599881 (dE=-0.991E-03)
 bond charge predicted
       N       E                     dE             d eps       ncg     rms          rms(c)
DAV:   1    -0.361572237291E+04    0.99618E-05   -0.20166E-02  5248   0.168E-01    0.581E-02
DAV:   2    -0.361572246668E+04   -0.93766E-04   -0.10017E-03  6024   0.267E-02    0.294E-02
DAV:   3    -0.361572246560E+04    0.10723E-05   -0.27782E-05  6128   0.514E-03    0.179E-02
DAV:   4    -0.361572246388E+04    0.17276E-05   -0.35117E-06  4864   0.203E-03    0.116E-02
DAV:   5    -0.361572246319E+04    0.68544E-06   -0.24563E-06  4552   0.190E-03
 augmentation electrons    1811.899261830485     
 soft         electrons    0.000000000000000     
 total        electrons    1811.899261830485     
 augmentation electrons  -7.6284938815764078E-002
 soft         electrons    0.000000000000000     
 total        electrons  -7.6284938815764078E-002
 augmentation electrons    2022.343626167346     
 soft         electrons    0.000000000000000     
 total        electrons    2022.343626167346     
 augmentation electrons    1964.826466295347     
 soft         electrons    0.000000000000000     
 total        electrons    1964.826466295347     
 augmentation electrons    54.80496013082552     
 soft         electrons    1757.094248410192     
 total        electrons    1811.899208541018     
 augmentation electrons    35.74606896186032     
 soft         electrons    1757.094248410192     
 total        electrons    59.92368788860193     
 translations:            0            1            0
 131 F= -.36535999E+04 E0= -.36535999E+04  d E =-.102601E-02  mag=    60.0000
 curvature:  -0.97 expect dE=-0.260E-02 dE for cont linesearch -0.818E-05
 trial: gam= 0.73495 g(F)=  0.268E-02 g(S)=  0.000E+00 ort = 0.347E-03 (trialstep = 0.366E+00)
 search vector abs. value=  0.109E-01
 bond charge predicted
       N       E                     dE             d eps       ncg     rms          rms(c)
DAV:   1    -0.361572276364E+04   -0.29977E-03   -0.85585E-02  5256   0.354E-01    0.122E-01
DAV:   2    -0.361572319528E+04   -0.43164E-03   -0.45443E-03  6008   0.565E-02    0.613E-02
DAV:   3    -0.361572319424E+04    0.10443E-05   -0.13716E-04  6240   0.112E-02    0.373E-02
DAV:   4    -0.361572318821E+04    0.60283E-05   -0.15091E-05  6272   0.409E-03    0.248E-02
DAV:   5    -0.361572318534E+04    0.28686E-05   -0.74360E-06  5712   0.359E-03    0.776E-03
DAV:   6    -0.361572318564E+04   -0.29469E-06   -0.26546E-06  4176   0.159E-03
 augmentation electrons    1811.896979709542     
 soft         electrons    0.000000000000000     
 total        electrons    1811.896979709542     
 augmentation electrons  -7.6215300716652432E-002
 soft         electrons    0.000000000000000     
 total        electrons  -7.6215300716652432E-002
 augmentation electrons    2024.041103168833     
 soft         electrons    0.000000000000000     
 total        electrons    2024.041103168833     
 augmentation electrons    1966.523943296833     
 soft         electrons    0.000000000000000     
 total        electrons    1966.523943296833     
 augmentation electrons    54.80282529658617     
 soft         electrons    1757.094100692576     
 total        electrons    1811.896925989162     
 augmentation electrons    35.74634779740601     
 soft         electrons    1757.094100692576     
 total        electrons    59.92375740928359     
 translations:            0            1            0
 132 F= -.36536006E+04 E0= -.36536006E+04  d E =-.709765E-03  mag=    60.0000
 trial-energy change:   -0.000710  1 .order   -0.000723   -0.001073   -0.000374
 step:   0.6081(harm=  0.5615)  dis= 0.00131  next Energy= -3653.600746 (dE=-0.830E-03)
 bond charge predicted
       N       E                     dE             d eps       ncg     rms          rms(c)
DAV:   1    -0.361572309231E+04    0.93035E-04   -0.37615E-02  5272   0.235E-01    0.809E-02
DAV:   2    -0.361572328303E+04   -0.19072E-03   -0.20032E-03  6024   0.375E-02    0.405E-02
DAV:   3    -0.361572328229E+04    0.73955E-06   -0.59504E-05  6232   0.734E-03    0.246E-02
DAV:   4    -0.361572327945E+04    0.28371E-05   -0.69216E-06  5952   0.277E-03    0.161E-02
DAV:   5    -0.361572327827E+04    0.11837E-05   -0.33846E-06  5040   0.238E-03    0.500E-03
DAV:   6    -0.361572327840E+04   -0.12996E-06   -0.11122E-06  3328   0.103E-03
 augmentation electrons    1811.895326457565     
 soft         electrons    0.000000000000000     
 total        electrons    1811.895326457565     
 augmentation electrons  -7.6189682928404737E-002
 soft         electrons    0.000000000000000     
 total        electrons  -7.6189682928404737E-002
 augmentation electrons    2025.017751730859     
 soft         electrons    0.000000000000000     
 total        electrons    2025.017751730859     
 augmentation electrons    1967.500591858859     
 soft         electrons    0.000000000000000     
 total        electrons    1967.500591858859     
 augmentation electrons    54.80129579673439     
 soft         electrons    1757.093976659981     
 total        electrons    1811.895272456715     
 augmentation electrons    35.74651287965278     
 soft         electrons    1757.093976659981     
 total        electrons    59.92378295267829     
 translations:            0            1            0
 133 F= -.36536007E+04 E0= -.36536007E+04  d E =-.790979E-03  mag=    60.0000
 curvature:  -0.99 expect dE=-0.313E-02 dE for cont linesearch -0.471E-05
 trial: gam= 1.37196 g(F)=  0.317E-02 g(S)=  0.000E+00 ort =-0.228E-03 (trialstep = 0.196E+00)
 search vector abs. value=  0.231E-01
 bond charge predicted
       N       E                     dE             d eps       ncg     rms          rms(c)
DAV:   1    -0.361572343966E+04   -0.16139E-03   -0.49439E-02  5256   0.274E-01    0.945E-02
DAV:   2    -0.361572370964E+04   -0.26998E-03   -0.27661E-03  5920   0.429E-02    0.466E-02
DAV:   3    -0.361572371153E+04   -0.18904E-05   -0.76324E-05  6144   0.809E-03    0.282E-02
DAV:   4    -0.361572370828E+04    0.32434E-05   -0.71870E-06  5752   0.280E-03    0.190E-02
DAV:   5    -0.361572370672E+04    0.15660E-05   -0.53834E-06  5488   0.301E-03    0.575E-03
DAV:   6    -0.361572370694E+04   -0.22061E-06   -0.15768E-06  3504   0.123E-03
 augmentation electrons    1811.893018138851     
 soft         electrons    0.000000000000000     
 total        electrons    1811.893018138851     
 augmentation electrons  -7.6066909305778724E-002
 soft         electrons    0.000000000000000     
 total        electrons  -7.6066909305778724E-002
 augmentation electrons    2025.678262645468     
 soft         electrons    0.000000000000000     
 total        electrons    2025.678262645468     
 augmentation electrons    1968.161102773468     
 soft         electrons    0.000000000000000     
 total        electrons    1968.161102773468     
 augmentation electrons    54.79902766916167     
 soft         electrons    1757.093936024454     
 total        electrons    1811.892963693615     
 augmentation electrons    35.74668255144323     
 soft         electrons    1757.093936024454     
 total        electrons    59.92390560544825     
 translations:            0            1            0
 134 F= -.36536011E+04 E0= -.36536011E+04  d E =-.438734E-03  mag=    60.0000
 trial-energy change:   -0.000439  1 .order   -0.000442   -0.000559   -0.000325
 step:   0.4680(harm=  0.4680)  dis= 0.00147  next Energy= -3653.601375 (dE=-0.668E-03)
 bond charge predicted
       N       E                     dE             d eps       ncg     rms          rms(c)
DAV:   1    -0.361572341212E+04    0.29460E-03   -0.95456E-02  5240   0.381E-01    0.131E-01
DAV:   2    -0.361572393339E+04   -0.52127E-03   -0.53424E-03  5912   0.597E-02    0.648E-02
DAV:   3    -0.361572393692E+04   -0.35333E-05   -0.14718E-04  6136   0.112E-02    0.392E-02
DAV:   4    -0.361572393065E+04    0.62705E-05   -0.14076E-05  6184   0.389E-03    0.264E-02
DAV:   5    -0.361572392757E+04    0.30757E-05   -0.10055E-05  5816   0.414E-03    0.800E-03
DAV:   6    -0.361572392800E+04   -0.43071E-06   -0.31265E-06  4472   0.169E-03
 augmentation electrons    1811.889616674711     
 soft         electrons    0.000000000000000     
 total        electrons    1811.889616674711     
 augmentation electrons  -7.5958526328705214E-002
 soft         electrons    0.000000000000000     
 total        electrons  -7.5958526328705214E-002
 augmentation electrons    2026.370609943455     
 soft         electrons    0.000000000000000     
 total        electrons    2026.370609943455     
 augmentation electrons    1968.853450071455     
 soft         electrons    0.000000000000000     
 total        electrons    1968.853450071455     
 augmentation electrons    54.79566704903422     
 soft         electrons    1757.093894570794     
 total        electrons    1811.889561619828     
 augmentation electrons    35.74685281444012     
 soft         electrons    1757.093894570794     
 total        electrons    59.92401382643983     
 translations:            0            1            0
 135 F= -.36536014E+04 E0= -.36536014E+04  d E =-.672726E-03  mag=    60.0000
 curvature:  -1.89 expect dE=-0.624E-02 dE for cont linesearch -0.345E-06
 trial: gam= 0.67057 g(F)=  0.330E-02 g(S)=  0.000E+00 ort = 0.648E-04 (trialstep = 0.250E+00)
 search vector abs. value=  0.138E-01
 bond charge predicted
       N       E                     dE             d eps       ncg     rms          rms(c)
DAV:   1    -0.361572434569E+04   -0.41812E-03   -0.50473E-02  5264   0.282E-01    0.940E-02
DAV:   2    -0.361572462054E+04   -0.27485E-03   -0.28550E-03  6016   0.453E-02    0.475E-02
DAV:   3    -0.361572462083E+04   -0.28587E-06   -0.84028E-05  6232   0.866E-03    0.285E-02
DAV:   4    -0.361572461685E+04    0.39733E-05   -0.98665E-06  6216   0.342E-03    0.182E-02
DAV:   5    -0.361572461555E+04    0.13070E-05   -0.46198E-06  5408   0.288E-03    0.538E-03
DAV:   6    -0.361572461573E+04   -0.18686E-06   -0.13297E-06  3408   0.116E-03
 augmentation electrons    1811.885981101110     
 soft         electrons    0.000000000000000     
 total        electrons    1811.885981101110     
 augmentation electrons  -7.5892068971521176E-002
 soft         electrons    0.000000000000000     
 total        electrons  -7.5892068971521176E-002
 augmentation electrons    2026.437541311903     
 soft         electrons    0.000000000000000     
 total        electrons    2026.437541311903     
 augmentation electrons    1968.920381439903     
 soft         electrons    0.000000000000000     
 total        electrons    1968.920381439903     
 augmentation electrons    54.79194192414070     
 soft         electrons    1757.093983511629     
 total        electrons    1811.885925435770     
 augmentation electrons    35.74690530153892     
 soft         electrons    1757.093983511629     
 total        electrons    59.92408013765721     
 translations:            0            1            0
 136 F= -.36536020E+04 E0= -.36536020E+04  d E =-.598753E-03  mag=    60.0000
 trial-energy change:   -0.000599  1 .order   -0.000606   -0.000836   -0.000377
 step:   0.5056(harm=  0.4556)  dis= 0.00103  next Energy= -3653.602163 (dE=-0.783E-03)
 bond charge predicted
       N       E                     dE             d eps       ncg     rms          rms(c)
DAV:   1    -0.361572456918E+04    0.46365E-04   -0.52457E-02  5264   0.288E-01    0.957E-02
DAV:   2    -0.361572485474E+04   -0.28556E-03   -0.29655E-03  6016   0.462E-02    0.485E-02
DAV:   3    -0.361572485512E+04   -0.38074E-06   -0.87467E-05  6232   0.885E-03    0.291E-02
DAV:   4    -0.361572485104E+04    0.40791E-05   -0.10207E-05  6200   0.348E-03    0.186E-02
DAV:   5    -0.361572484968E+04    0.13653E-05   -0.47648E-06  5440   0.293E-03    0.551E-03
DAV:   6    -0.361572484987E+04   -0.19558E-06   -0.13831E-06  3440   0.119E-03
 augmentation electrons    1811.882145280666     
 soft         electrons    0.000000000000000     
 total        electrons    1811.882145280666     
 augmentation electrons  -7.5849567814840216E-002
 soft         electrons    0.000000000000000     
 total        electrons  -7.5849567814840216E-002
 augmentation electrons    2026.391389641568     
 soft         electrons    0.000000000000000     
 total        electrons    2026.391389641568     
 augmentation electrons    1968.874229769569     
 soft         electrons    0.000000000000000     
 total        electrons    1968.874229769569     
 augmentation electrons    54.78800979616301     
 soft         electrons    1757.094079199244     
 total        electrons    1811.882088995407     
 augmentation electrons    35.74693228575842     
 soft         electrons    1757.094079199244     
 total        electrons    59.92412249296370     
 translations:            0            1            0
 137 F= -.36536021E+04 E0= -.36536021E+04  d E =-.745183E-03  mag=    60.0000
 curvature:  -0.88 expect dE=-0.236E-02 dE for cont linesearch -0.622E-05
 trial: gam= 0.93773 g(F)=  0.268E-02 g(S)=  0.000E+00 ort =-0.311E-03 (trialstep = 0.292E+00)
 search vector abs. value=  0.142E-01
 bond charge predicted
       N       E                     dE             d eps       ncg     rms          rms(c)
DAV:   1    -0.361572503618E+04   -0.18650E-03   -0.71317E-02  5280   0.353E-01    0.119E-01
DAV:   2    -0.361572548686E+04   -0.45068E-03   -0.45397E-03  5992   0.554E-02    0.590E-02
DAV:   3    -0.361572549242E+04   -0.55601E-05   -0.13657E-04  6168   0.107E-02    0.342E-02
DAV:   4    -0.361572548726E+04    0.51598E-05   -0.13839E-05  6336   0.399E-03    0.223E-02
DAV:   5    -0.361572548507E+04    0.21946E-05   -0.60783E-06  5608   0.350E-03    0.705E-03
DAV:   6    -0.361572548532E+04   -0.25557E-06   -0.18868E-06  3920   0.136E-03
 augmentation electrons    1811.876233259602     
 soft         electrons    0.000000000000000     
 total        electrons    1811.876233259602     
 augmentation electrons  -7.5725644565863032E-002
 soft         electrons    0.000000000000000     
 total        electrons  -7.5725644565863032E-002
 augmentation electrons    2026.281832829477     
 soft         electrons    0.000000000000000     
 total        electrons    2026.281832829477     
 augmentation electrons    1968.764672957477     
 soft         electrons    0.000000000000000     
 total        electrons    1968.764672957477     
 augmentation electrons    54.78193523395377     
 soft         electrons    1757.094240983532     
 total        electrons    1811.876176217486     
 augmentation electrons    35.74702810461250     
 soft         electrons    1757.094240983532     
 total        electrons    59.92424621369393     
 translations:            0            1            0
 138 F= -.36536026E+04 E0= -.36536026E+04  d E =-.470737E-03  mag=    60.0000
 trial-energy change:   -0.000471  1 .order   -0.000453   -0.000697   -0.000209
 step:   0.3890(harm=  0.4175)  dis= 0.00089  next Energy= -3653.602631 (dE=-0.506E-03)
 bond charge predicted
       N       E                     dE             d eps       ncg     rms          rms(c)
DAV:   1    -0.361572554340E+04   -0.58335E-04   -0.78560E-03  5304   0.117E-01    0.398E-02
DAV:   2    -0.361572559321E+04   -0.49811E-04   -0.50146E-04  5984   0.184E-02    0.196E-02
DAV:   3    -0.361572559372E+04   -0.50374E-06   -0.14637E-05  5440   0.352E-03    0.113E-02
DAV:   4    -0.361572559308E+04    0.63104E-06   -0.16483E-06  3736   0.145E-03
 augmentation electrons    1811.874244803420     
 soft         electrons    0.000000000000000     
 total        electrons    1811.874244803420     
 augmentation electrons  -7.5691150375225863E-002
 soft         electrons    0.000000000000000     
 total        electrons  -7.5691150375225863E-002
 augmentation electrons    2026.212732569976     
 soft         electrons    0.000000000000000     
 total        electrons    2026.212732569976     
 augmentation electrons    1968.695572697976     
 soft         electrons    0.000000000000000     
 total        electrons    1968.695572697976     
 augmentation electrons    54.77989160159975     
 soft         electrons    1757.094295910630     
 total        electrons    1811.874187512230     
 augmentation electrons    35.74704994301242     
 soft         electrons    1757.094295910630     
 total        electrons    59.92428064210315     
 translations:            0            1            0
 139 F= -.36536027E+04 E0= -.36536027E+04  d E =-.526306E-03  mag=    60.0000
 curvature:  -1.18 expect dE=-0.256E-02 dE for cont linesearch -0.520E-05
 trial: gam= 0.46824 g(F)=  0.217E-02 g(S)=  0.000E+00 ort = 0.250E-03 (trialstep = 0.312E+00)
 search vector abs. value=  0.552E-02
 bond charge predicted
       N       E                     dE             d eps       ncg     rms          rms(c)
DAV:   1    -0.361572594880E+04   -0.35508E-03   -0.37671E-02  5264   0.259E-01    0.836E-02
DAV:   2    -0.361572616823E+04   -0.21943E-03   -0.22291E-03  6096   0.399E-02    0.426E-02
DAV:   3    -0.361572617050E+04   -0.22750E-05   -0.72153E-05  6128   0.788E-03    0.246E-02
DAV:   4    -0.361572616751E+04    0.29864E-05   -0.71713E-06  5896   0.297E-03    0.158E-02
DAV:   5    -0.361572616631E+04    0.11996E-05   -0.34068E-06  5056   0.256E-03    0.501E-03
DAV:   6    -0.361572616643E+04   -0.11662E-06   -0.10833E-06  3336   0.110E-03
 augmentation electrons    1811.870640381456     
 soft         electrons    0.000000000000000     
 total        electrons    1811.870640381456     
 augmentation electrons  -7.5619657892446596E-002
 soft         electrons    0.000000000000000     
 total        electrons  -7.5619657892446596E-002
 augmentation electrons    2026.362875049819     
 soft         electrons    0.000000000000000     
 total        electrons    2026.362875049819     
 augmentation electrons    1968.845715177819     
 soft         electrons    0.000000000000000     
 total        electrons    1968.845715177819     
 augmentation electrons    54.77619888739206     
 soft         electrons    1757.094383692488     
 total        electrons    1811.870582579880     
 augmentation electrons    35.74711071913650     
 soft         electrons    1757.094383692488     
 total        electrons    59.92435199963556     
 translations:            0            1            0
 140 F= -.36536032E+04 E0= -.36536032E+04  d E =-.531091E-03  mag=    60.0000
 trial-energy change:   -0.000531  1 .order   -0.000489   -0.000713   -0.000266
 step:   0.4173(harm=  0.4965)  dis= 0.00053  next Energy= -3653.603229 (dE=-0.578E-03)
 reached required accuracy - stopping structural energy minimisation
 writing wavefunctions
