 ----------------------------------------------------
    OOO  PPPP  EEEEE N   N M   M PPPP
   O   O P   P E     NN  N MM MM P   P
   O   O PPPP  EEEEE N N N M M M PPPP   -- VERSION
   O   O P     E     N  NN M   M P
    OOO  P     EEEEE N   N M   M P
 ----------------------------------------------------
 running  512 mpi-ranks, with    1 threads/rank
 distrk:  each k-point on  512 cores,    1 groups
 distr:  one band on    4 cores,  128 groups
 vasp.6.3.2 27Jun22 (build Nov 12 2024 19:13:04) complex                        
  
 POSCAR found type information on POSCAR MnBrN C H 
 POSCAR found :  5 types and     635 ions
 scaLAPACK will be used
 LDA part: xc-table for Pade appr. of Perdew
 POSCAR, INCAR and KPOINTS ok, starting setup
 FFT: planning ... GRIDC
 FFT: planning ... GRID_SOFT
 FFT: planning ... GRID
 WAVECAR not read
 entering main loop
       N       E                     dE             d eps       ncg     rms          rms(c)
RMM:   1     0.172902222811E+05    0.17290E+05   -0.60809E+05  2560   0.101E+03
RMM:   2     0.289855394888E+04   -0.14392E+05   -0.17015E+05  2560   0.245E+02
RMM:   3    -0.118087783683E+04   -0.40794E+04   -0.55097E+04  2560   0.140E+02
RMM:   4    -0.315162609221E+04   -0.19707E+04   -0.17873E+04  2560   0.990E+01
RMM:   5    -0.366976663436E+04   -0.51814E+03   -0.48808E+03  2560   0.538E+01
RMM:   6    -0.383041956987E+04   -0.16065E+03   -0.14259E+03  2560   0.309E+01
RMM:   7    -0.388445512552E+04   -0.54036E+02   -0.49099E+02  2560   0.176E+01
RMM:   8    -0.390656313743E+04   -0.22108E+02   -0.19251E+02  2560   0.112E+01
RMM:   9    -0.391933601731E+04   -0.12773E+02   -0.12228E+02  6079   0.655E+00
RMM:  10    -0.392245769309E+04   -0.31217E+01   -0.28087E+01  6972   0.292E+00
RMM:  11    -0.392301913014E+04   -0.56144E+00   -0.43561E+00  7416   0.100E+00
RMM:  12    -0.392312720424E+04   -0.10807E+00   -0.89287E-01  7680   0.342E-01    0.182E+02
RMM:  13    -0.486171855235E+04   -0.93859E+03   -0.50411E+03  8758   0.550E+01    0.365E+02
RMM:  14    -0.416064319724E+04    0.70108E+03   -0.73829E+02  8506   0.181E+01    0.216E+02
RMM:  15    -0.626422345914E+04   -0.21036E+04   -0.33588E+03  8661   0.236E+01    0.201E+02
RMM:  16    -0.415831824808E+04    0.21059E+04   -0.50550E+02  8375   0.107E+01    0.160E+02
RMM:  17    -0.368159142743E+04    0.47673E+03   -0.14634E+02  7803   0.691E+00    0.123E+02
RMM:  18    -0.371671507634E+04   -0.35124E+02   -0.20583E+02  7472   0.102E+01    0.113E+02
RMM:  19    -0.367965171526E+04    0.37063E+02   -0.84052E+01  6767   0.606E+00    0.109E+02
RMM:  20    -0.362163814333E+04    0.58014E+02   -0.75795E+01  6644   0.481E+00    0.918E+01
RMM:  21    -0.363353060723E+04   -0.11892E+02   -0.15525E+01  6406   0.265E+00    0.102E+02
RMM:  22    -0.359818921410E+04    0.35341E+02   -0.11917E+01  6151   0.221E+00    0.101E+02
RMM:  23    -0.361188088188E+04   -0.13692E+02   -0.17118E+01  6278   0.248E+00    0.942E+01
RMM:  24    -0.361321631593E+04   -0.13354E+01   -0.15188E+01  6532   0.233E+00    0.917E+01
RMM:  25    -0.359038899856E+04    0.22827E+02   -0.19515E+01  6637   0.277E+00    0.811E+01
RMM:  26    -0.358312720683E+04    0.72618E+01   -0.42762E+00  5804   0.146E+00    0.722E+01
RMM:  27    -0.359072942146E+04   -0.76022E+01   -0.46406E+00  6211   0.148E+00    0.859E+01
RMM:  28    -0.359200625391E+04   -0.12768E+01   -0.50328E+00  6452   0.156E+00    0.848E+01
RMM:  29    -0.358381734777E+04    0.81889E+01   -0.34372E+00  6000   0.145E+00    0.722E+01
RMM:  30    -0.358110428739E+04    0.27131E+01   -0.22470E+00  6092   0.126E+00    0.712E+01
RMM:  31    -0.358260691071E+04   -0.15026E+01   -0.92478E-01  5564   0.103E+00    0.656E+01
RMM:  32    -0.358252068874E+04    0.86222E-01   -0.30374E-01  5215   0.602E-01    0.654E+01
RMM:  33    -0.358236975554E+04    0.15093E+00   -0.89752E-02  5215   0.334E-01    0.654E+01
RMM:  34    -0.358234359857E+04    0.26157E-01   -0.55650E-02  5265   0.185E-01    0.647E+01
RMM:  35    -0.358201526651E+04    0.32833E+00   -0.34996E-02  5263   0.147E-01    0.642E+01
RMM:  36    -0.358205088544E+04   -0.35619E-01   -0.14023E-02  5230   0.111E-01    0.645E+01
RMM:  37    -0.358191076569E+04    0.14012E+00   -0.16365E-01  6303   0.277E-01    0.632E+01
RMM:  38    -0.358179077918E+04    0.11999E+00   -0.62896E-02  5819   0.208E-01    0.627E+01
RMM:  39    -0.358161696429E+04    0.17381E+00   -0.69734E-02  6139   0.212E-01    0.618E+01
RMM:  40    -0.358152943642E+04    0.87528E-01   -0.32257E-02  5651   0.186E-01    0.616E+01
RMM:  41    -0.358155329809E+04   -0.23862E-01   -0.56300E-02  6226   0.214E-01    0.622E+01
RMM:  42    -0.358148925769E+04    0.64040E-01   -0.11649E-02  5441   0.108E-01    0.622E+01
RMM:  43    -0.358115857926E+04    0.33068E+00   -0.12639E-01  7250   0.261E-01    0.595E+01
RMM:  44    -0.358031985994E+04    0.83872E+00   -0.17529E-01  7701   0.368E-01    0.582E+01
RMM:  45    -0.358050328423E+04   -0.18342E+00   -0.14121E-01  7022   0.330E-01    0.571E+01
RMM:  46    -0.357919341973E+04    0.13099E+01   -0.42896E-01  7521   0.407E-01    0.575E+01
RMM:  47    -0.357926548632E+04   -0.72067E-01   -0.13681E-01  6624   0.337E-01    0.573E+01
RMM:  48    -0.357933886646E+04   -0.73380E-01   -0.77795E-02  6751   0.220E-01    0.566E+01
RMM:  49    -0.357950786008E+04   -0.16899E+00   -0.90602E-01  8467   0.684E-01    0.537E+01
RMM:  50    -0.357983267817E+04   -0.32482E+00   -0.55804E-01  8301   0.658E-01    0.507E+01
RMM:  51    -0.358073650052E+04   -0.90382E+00   -0.22984E-01  7908   0.521E-01    0.511E+01
RMM:  52    -0.358080058996E+04   -0.64089E-01   -0.10876E-01  7232   0.391E-01    0.513E+01
RMM:  53    -0.358080313099E+04   -0.25410E-02   -0.22839E-02  6015   0.174E-01    0.515E+01
RMM:  54    -0.358012259707E+04    0.68053E+00   -0.15981E-01  7590   0.336E-01    0.507E+01
RMM:  55    -0.358004756452E+04    0.75033E-01   -0.69668E-02  6867   0.300E-01    0.512E+01
RMM:  56    -0.357994589725E+04    0.10167E+00   -0.28133E-02  5844   0.174E-01    0.513E+01
RMM:  57    -0.358001646004E+04   -0.70563E-01   -0.19347E-02  6326   0.133E-01    0.512E+01
RMM:  58    -0.358893210578E+04   -0.89156E+01   -0.43611E+00  8742   0.116E+00    0.722E+01
RMM:  59    -0.358206695662E+04    0.68651E+01   -0.39192E+00  8721   0.150E+00    0.518E+01
RMM:  60    -0.358580456110E+04   -0.37376E+01   -0.23456E+00  8681   0.120E+00    0.599E+01
RMM:  61    -0.358584691129E+04   -0.42350E-01   -0.26478E+00  8586   0.961E-01    0.583E+01
RMM:  62    -0.358171603439E+04    0.41309E+01   -0.15537E+00  8552   0.808E-01    0.506E+01
RMM:  63    -0.357756489649E+04    0.41511E+01   -0.16728E+00  8601   0.890E-01    0.501E+01
RMM:  64    -0.357485782375E+04    0.27071E+01   -0.52099E-01  8258   0.525E-01    0.434E+01
RMM:  65    -0.357246596514E+04    0.23919E+01   -0.72052E-01  8373   0.626E-01    0.446E+01
RMM:  66    -0.356990242011E+04    0.25635E+01   -0.45268E-01  8274   0.473E-01    0.423E+01
RMM:  67    -0.356730372481E+04    0.25987E+01   -0.30290E-01  7987   0.369E-01    0.422E+01
RMM:  68    -0.356663400237E+04    0.66972E+00   -0.26520E+00  8591   0.974E-01    0.517E+01
RMM:  69    -0.355904354132E+04    0.75905E+01   -0.19808E+00  8583   0.107E+00    0.424E+01
RMM:  70    -0.356057153358E+04   -0.15280E+01   -0.40812E-01  8089   0.614E-01    0.419E+01
RMM:  71    -0.356133002790E+04   -0.75849E+00   -0.10125E-01  7270   0.292E-01    0.414E+01
RMM:  72    -0.356254690045E+04   -0.12169E+01   -0.93382E-02  6889   0.230E-01    0.412E+01
RMM:  73    -0.357954604495E+04   -0.16999E+02   -0.66952E+00  8689   0.167E+00    0.674E+01
RMM:  74    -0.357440285689E+04    0.51432E+01   -0.26677E+00  8599   0.122E+00    0.424E+01
RMM:  75    -0.357517195780E+04   -0.76910E+00   -0.50137E-01  8250   0.709E-01    0.420E+01
RMM:  76    -0.357548763237E+04   -0.31567E+00   -0.88373E-02  7424   0.253E-01    0.423E+01
RMM:  77    -0.357706007940E+04   -0.15724E+01   -0.27323E-01  8154   0.383E-01    0.397E+01
RMM:  78    -0.358998020889E+04   -0.12920E+02   -0.13375E+01  8721   0.215E+00    0.527E+01
RMM:  79    -0.359260725149E+04   -0.26270E+01   -0.82077E+00  8675   0.127E+00    0.625E+01
RMM:  80    -0.358753450020E+04    0.50728E+01   -0.12589E+00  8546   0.927E-01    0.473E+01
RMM:  81    -0.358805880527E+04   -0.52431E+00   -0.27901E-01  8046   0.545E-01    0.464E+01
RMM:  82    -0.358743314191E+04    0.62566E+00   -0.93073E-02  7310   0.243E-01    0.451E+01
RMM:  83    -0.359040580170E+04   -0.29727E+01   -0.90227E-01  8489   0.715E-01    0.531E+01
RMM:  84    -0.358813036546E+04    0.22754E+01   -0.76524E-01  8353   0.695E-01    0.418E+01
RMM:  85    -0.358756854705E+04    0.56182E+00   -0.31698E-01  8086   0.552E-01    0.410E+01
RMM:  86    -0.358839368944E+04   -0.82514E+00   -0.21562E-01  7826   0.439E-01    0.392E+01
RMM:  87    -0.358821573017E+04    0.17796E+00   -0.72437E-02  7020   0.267E-01    0.383E+01
RMM:  88    -0.358809470334E+04    0.12103E+00   -0.22262E-01  8000   0.387E-01    0.381E+01
RMM:  89    -0.358809305083E+04    0.16525E-02   -0.16304E-01  7650   0.360E-01    0.388E+01
RMM:  90    -0.358876970870E+04   -0.67666E+00   -0.38141E-01  8217   0.541E-01    0.409E+01
RMM:  91    -0.358853660498E+04    0.23310E+00   -0.15540E-01  8014   0.319E-01    0.409E+01
RMM:  92    -0.358923012236E+04   -0.69352E+00   -0.25323E-01  8174   0.392E-01    0.425E+01
RMM:  93    -0.360394255394E+04   -0.14712E+02   -0.40327E+00  8688   0.137E+00    0.767E+01
RMM:  94    -0.358986870992E+04    0.14074E+02   -0.34746E+00  8643   0.119E+00    0.478E+01
RMM:  95    -0.358885333640E+04    0.10154E+01   -0.36272E-01  8068   0.599E-01    0.415E+01
RMM:  96    -0.358824105727E+04    0.61228E+00   -0.18730E-01  7925   0.361E-01    0.374E+01
RMM:  97    -0.358930404268E+04   -0.10630E+01   -0.22797E-01  8037   0.402E-01    0.390E+01
RMM:  98    -0.358905488881E+04    0.24915E+00   -0.42782E+00  8705   0.122E+00    0.382E+01
RMM:  99    -0.358789304866E+04    0.11618E+01   -0.20778E+00  8566   0.991E-01    0.351E+01
RMM: 100    -0.358863619032E+04   -0.74314E+00   -0.46069E-01  8258   0.619E-01    0.336E+01
RMM: 101    -0.358886471640E+04   -0.22853E+00   -0.12984E-01  7802   0.312E-01    0.331E+01
RMM: 102    -0.358883600841E+04    0.28708E-01   -0.14261E-01  7562   0.302E-01    0.340E+01
RMM: 103    -0.360648806762E+04   -0.17652E+02   -0.20749E+01  8721   0.235E+00    0.907E+01
RMM: 104    -0.358665047292E+04    0.19838E+02   -0.70064E+00  8717   0.156E+00    0.355E+01
RMM: 105    -0.358680087156E+04   -0.15040E+00   -0.78556E-01  8369   0.703E-01    0.341E+01
RMM: 106    -0.358693600503E+04   -0.13513E+00   -0.12968E-01  7595   0.362E-01    0.339E+01
RMM: 107    -0.358687510393E+04    0.60901E-01   -0.38446E-02  6884   0.183E-01    0.332E+01
RMM: 108    -0.358725138807E+04   -0.37628E+00   -0.64091E-01  8286   0.512E-01    0.356E+01
RMM: 109    -0.358712000553E+04    0.13138E+00   -0.24501E-01  8022   0.514E-01    0.346E+01
RMM: 110    -0.358707528938E+04    0.44716E-01   -0.72395E-02  7204   0.333E-01    0.344E+01
RMM: 111    -0.358702006115E+04    0.55228E-01   -0.17370E-02  6313   0.150E-01    0.346E+01
RMM: 112    -0.358705187040E+04   -0.31809E-01   -0.10381E-02  6023   0.105E-01    0.342E+01
RMM: 113    -0.358727442529E+04   -0.22255E+00   -0.13525E+00  8496   0.658E-01    0.403E+01
RMM: 114    -0.358739712677E+04   -0.12270E+00   -0.55752E-01  8486   0.731E-01    0.355E+01
RMM: 115    -0.358707804028E+04    0.31909E+00   -0.20387E-01  8145   0.416E-01    0.341E+01
RMM: 116    -0.358763542954E+04   -0.55739E+00   -0.11804E-01  7679   0.301E-01    0.337E+01
RMM: 117    -0.358871912122E+04   -0.10837E+01   -0.38193E-01  8301   0.419E-01    0.338E+01
RMM: 118    -0.359171476824E+04   -0.29956E+01   -0.27192E+00  8612   0.103E+00    0.575E+01
RMM: 119    -0.358799098274E+04    0.37238E+01   -0.22766E+00  8506   0.772E-01    0.326E+01
RMM: 120    -0.358834268757E+04   -0.35170E+00   -0.35458E-01  8384   0.493E-01    0.288E+01
RMM: 121    -0.358876518415E+04   -0.42250E+00   -0.16582E-01  8191   0.361E-01    0.283E+01
RMM: 122    -0.358928062253E+04   -0.51544E+00   -0.17566E-01  8009   0.278E-01    0.279E+01
RMM: 123    -0.359085499459E+04   -0.15744E+01   -0.23378E+00  8488   0.780E-01    0.407E+01
RMM: 124    -0.358917577245E+04    0.16792E+01   -0.17684E+00  8389   0.751E-01    0.328E+01
RMM: 125    -0.358933970445E+04   -0.16393E+00   -0.11774E-01  7190   0.361E-01    0.324E+01
RMM: 126    -0.358952701486E+04   -0.18731E+00   -0.65061E-02  7249   0.181E-01    0.339E+01
RMM: 127    -0.358948914895E+04    0.37866E-01   -0.40048E-02  7116   0.164E-01    0.338E+01
RMM: 128    -0.358922793923E+04    0.26121E+00   -0.10616E+00  8649   0.723E-01    0.352E+01
RMM: 129    -0.359064010296E+04   -0.14122E+01   -0.39161E-01  8513   0.436E-01    0.357E+01
RMM: 130    -0.359561801466E+04   -0.49779E+01   -0.55968E-01  8625   0.424E-01    0.475E+01
RMM: 131    -0.359157532207E+04    0.40427E+01   -0.62944E-01  8458   0.635E-01    0.358E+01
RMM: 132    -0.359213194567E+04   -0.55662E+00   -0.17614E-01  7996   0.433E-01    0.369E+01
RMM: 133    -0.359245288519E+04   -0.32094E+00   -0.13551E-01  8047   0.340E-01    0.333E+01
RMM: 134    -0.359224498535E+04    0.20790E+00   -0.10785E-01  7820   0.275E-01    0.350E+01
RMM: 135    -0.359267411766E+04   -0.42913E+00   -0.49133E-02  7216   0.206E-01    0.364E+01
RMM: 136    -0.359260695012E+04    0.67168E-01   -0.21060E-02  6461   0.160E-01    0.365E+01
RMM: 137    -0.359264796704E+04   -0.41017E-01   -0.12352E-02  6222   0.107E-01    0.370E+01
RMM: 138    -0.360187143435E+04   -0.92235E+01   -0.48607E+00  8659   0.124E+00    0.605E+01
RMM: 139    -0.359166756861E+04    0.10204E+02   -0.31098E+00  8624   0.105E+00    0.370E+01
RMM: 140    -0.359269517914E+04   -0.10276E+01   -0.26252E-01  8185   0.522E-01    0.352E+01
RMM: 141    -0.359291299700E+04   -0.21782E+00   -0.68632E-02  7239   0.257E-01    0.358E+01
RMM: 142    -0.359337462249E+04   -0.46163E+00   -0.48502E-02  7173   0.163E-01    0.371E+01
RMM: 143    -0.359255418848E+04    0.82043E+00   -0.11320E+00  8511   0.692E-01    0.384E+01
RMM: 144    -0.359447856460E+04   -0.19244E+01   -0.32540E-01  8314   0.510E-01    0.373E+01
RMM: 145    -0.359715544863E+04   -0.26769E+01   -0.34682E-01  8429   0.393E-01    0.399E+01
RMM: 146    -0.359410355667E+04    0.30519E+01   -0.41154E-01  8433   0.504E-01    0.351E+01
RMM: 147    -0.359431691328E+04   -0.21336E+00   -0.28249E-01  8356   0.515E-01    0.350E+01
RMM: 148    -0.359635852883E+04   -0.20416E+01   -0.69423E+00  8719   0.147E+00    0.493E+01
RMM: 149    -0.359369995526E+04    0.26586E+01   -0.27813E+00  8706   0.968E-01    0.334E+01
RMM: 150    -0.359397428994E+04   -0.27433E+00   -0.48277E-01  8427   0.523E-01    0.326E+01
RMM: 151    -0.359379738890E+04    0.17690E+00   -0.19645E-01  8169   0.392E-01    0.308E+01
RMM: 152    -0.359395954738E+04   -0.16216E+00   -0.82557E-02  7743   0.193E-01    0.303E+01
RMM: 153    -0.359296870590E+04    0.99084E+00   -0.14039E+00  8649   0.854E-01    0.313E+01
RMM: 154    -0.359384166154E+04   -0.87296E+00   -0.36310E-01  8369   0.478E-01    0.290E+01
RMM: 155    -0.359411571696E+04   -0.27406E+00   -0.90833E-02  7980   0.204E-01    0.281E+01
RMM: 156    -0.359534858157E+04   -0.12329E+01   -0.33257E-01  8330   0.376E-01    0.291E+01
RMM: 157    -0.359516737991E+04    0.18120E+00   -0.79299E-02  7247   0.256E-01    0.299E+01
RMM: 158    -0.359584898307E+04   -0.68160E+00   -0.37253E-01  8305   0.446E-01    0.336E+01
RMM: 159    -0.359533912189E+04    0.50986E+00   -0.38290E-01  8307   0.479E-01    0.303E+01
RMM: 160    -0.359531764588E+04    0.21476E-01   -0.60853E-02  7379   0.214E-01    0.300E+01
RMM: 161    -0.359520183633E+04    0.11581E+00   -0.17893E-01  7350   0.153E-01    0.298E+01
RMM: 162    -0.359536368143E+04   -0.16185E+00   -0.10578E-01  7389   0.232E-01    0.297E+01
RMM: 163    -0.359457736248E+04    0.78632E+00   -0.11813E+00  8609   0.663E-01    0.286E+01
RMM: 164    -0.359354148220E+04    0.10359E+01   -0.60498E-01  8591   0.453E-01    0.270E+01
RMM: 165    -0.359391145663E+04   -0.36997E+00   -0.71662E-01  8468   0.602E-01    0.267E+01
RMM: 166    -0.359485745648E+04   -0.94600E+00   -0.31376E-01  8285   0.372E-01    0.327E+01
RMM: 167    -0.359427170048E+04    0.58576E+00   -0.13530E-01  7810   0.298E-01    0.300E+01
RMM: 168    -0.359504419118E+04   -0.77249E+00   -0.10809E+00  8643   0.670E-01    0.338E+01
RMM: 169    -0.359393252151E+04    0.11117E+01   -0.81367E-01  8503   0.742E-01    0.265E+01
RMM: 170    -0.359408133255E+04   -0.14881E+00   -0.57498E-01  8412   0.573E-01    0.273E+01
RMM: 171    -0.359348611245E+04    0.59522E+00   -0.20907E-01  7990   0.287E-01    0.271E+01
RMM: 172    -0.359310455027E+04    0.38156E+00   -0.17204E-01  8077   0.236E-01    0.267E+01
RMM: 173    -0.359386128731E+04   -0.75674E+00   -0.14976E+00  8685   0.750E-01    0.258E+01
RMM: 174    -0.359405194552E+04   -0.19066E+00   -0.55113E-01  8489   0.494E-01    0.241E+01
RMM: 175    -0.359457782637E+04   -0.52588E+00   -0.32341E-01  8337   0.357E-01    0.217E+01
RMM: 176    -0.359494830231E+04   -0.37048E+00   -0.24158E-01  8308   0.350E-01    0.208E+01
RMM: 177    -0.359529842384E+04   -0.35012E+00   -0.15148E-01  8147   0.245E-01    0.214E+01
RMM: 178    -0.359520144414E+04    0.96980E-01   -0.69506E-01  8522   0.605E-01    0.193E+01
RMM: 179    -0.359561965947E+04   -0.41822E+00   -0.29930E-01  8373   0.404E-01    0.211E+01
RMM: 180    -0.359549339030E+04    0.12627E+00   -0.12040E-01  7902   0.285E-01    0.175E+01
RMM: 181    -0.359583521611E+04   -0.34183E+00   -0.19136E-01  8144   0.292E-01    0.171E+01
RMM: 182    -0.359593135970E+04   -0.96144E-01   -0.67590E-02  7529   0.127E-01    0.188E+01
RMM: 183    -0.359719859845E+04   -0.12672E+01   -0.15562E+00  8580   0.767E-01    0.292E+01
RMM: 184    -0.359670398887E+04    0.49461E+00   -0.36427E-01  8315   0.467E-01    0.249E+01
RMM: 185    -0.359649962132E+04    0.20437E+00   -0.19848E-01  7966   0.240E-01    0.255E+01
RMM: 186    -0.359577533442E+04    0.72429E+00   -0.39026E-01  8397   0.350E-01    0.233E+01
RMM: 187    -0.359546781280E+04    0.30752E+00   -0.15205E-01  8203   0.246E-01    0.186E+01
RMM: 188    -0.359634520244E+04   -0.87739E+00   -0.72721E-01  8480   0.610E-01    0.227E+01
RMM: 189    -0.359638359794E+04   -0.38395E-01   -0.14223E-01  7999   0.308E-01    0.200E+01
RMM: 190    -0.359636481478E+04    0.18783E-01   -0.75576E-02  7685   0.169E-01    0.176E+01
RMM: 191    -0.359644002814E+04   -0.75213E-01   -0.18036E-01  8118   0.239E-01    0.156E+01
RMM: 192    -0.359677005715E+04   -0.33003E+00   -0.13165E-01  7707   0.208E-01    0.150E+01
RMM: 193    -0.359874229676E+04   -0.19722E+01   -0.27794E+00  8551   0.763E-01    0.233E+01
RMM: 194    -0.359763885168E+04    0.11034E+01   -0.94654E-01  8453   0.580E-01    0.158E+01
RMM: 195    -0.359745388110E+04    0.18497E+00   -0.29416E-01  8220   0.369E-01    0.145E+01
RMM: 196    -0.359753367683E+04   -0.79796E-01   -0.85317E-02  7862   0.176E-01    0.154E+01
RMM: 197    -0.359757014106E+04   -0.36464E-01   -0.16784E-01  8191   0.236E-01    0.153E+01
RMM: 198    -0.359754531928E+04    0.24822E-01   -0.17226E-01  8113   0.332E-01    0.154E+01
RMM: 199    -0.359755655497E+04   -0.11236E-01   -0.36015E-02  7176   0.141E-01    0.151E+01
RMM: 200    -0.359756081876E+04   -0.42638E-02   -0.20551E-02  6890   0.858E-02    0.149E+01
RMM: 201    -0.359758965139E+04   -0.28833E-01   -0.63479E-03  6157   0.580E-02    0.147E+01
RMM: 202    -0.359769877266E+04   -0.10912E+00   -0.13503E-01  8193   0.220E-01    0.141E+01
RMM: 203    -0.359714319319E+04    0.55558E+00   -0.93565E-01  8532   0.540E-01    0.125E+01
RMM: 204    -0.359716252503E+04   -0.19332E-01   -0.19867E-01  8187   0.307E-01    0.113E+01
RMM: 205    -0.359710161078E+04    0.60914E-01   -0.96353E-02  8147   0.184E-01    0.145E+01
RMM: 206    -0.359712007220E+04   -0.18461E-01   -0.32268E-02  7045   0.208E-01    0.153E+01
RMM: 207    -0.359708043002E+04    0.39642E-01   -0.80978E-03  6201   0.902E-02    0.150E+01
RMM: 208    -0.359679454762E+04    0.28588E+00   -0.34039E-01  8396   0.317E-01    0.139E+01
RMM: 209    -0.359692550488E+04   -0.13096E+00   -0.79802E-02  7749   0.158E-01    0.136E+01
RMM: 210    -0.359700906904E+04   -0.83564E-01   -0.47547E-02  7885   0.121E-01    0.136E+01
RMM: 211    -0.359718947434E+04   -0.18041E+00   -0.73446E-02  7856   0.126E-01    0.158E+01
RMM: 212    -0.359724608023E+04   -0.56606E-01   -0.42068E-02  7721   0.156E-01    0.164E+01
RMM: 213    -0.359726180149E+04   -0.15721E-01   -0.61903E-01  8483   0.417E-01    0.153E+01
RMM: 214    -0.359754567537E+04   -0.28387E+00   -0.24690E-01  8236   0.298E-01    0.170E+01
RMM: 215    -0.359748051492E+04    0.65160E-01   -0.67674E-02  8076   0.210E-01    0.158E+01
RMM: 216    -0.359737420024E+04    0.10631E+00   -0.46248E-02  7470   0.122E-01    0.150E+01
RMM: 217    -0.359756776323E+04   -0.19356E+00   -0.29478E-02  7652   0.110E-01    0.173E+01
RMM: 218    -0.359755312032E+04    0.14643E-01   -0.13525E-01  8192   0.239E-01    0.170E+01
RMM: 219    -0.359768044107E+04   -0.12732E+00   -0.30323E-02  7343   0.147E-01    0.172E+01
RMM: 220    -0.359764807616E+04    0.32365E-01   -0.10114E-02  6371   0.101E-01    0.173E+01
RMM: 221    -0.359765924667E+04   -0.11171E-01   -0.37006E-04  5248   0.179E-02    0.173E+01
RMM: 222    -0.359765786680E+04    0.13799E-02   -0.38336E-05  5343   0.570E-03    0.173E+01
RMM: 223    -0.359814306248E+04   -0.48520E+00   -0.14906E-01  8574   0.200E-01    0.213E+01
RMM: 224    -0.359763887721E+04    0.50419E+00   -0.71448E-02  8406   0.211E-01    0.174E+01
RMM: 225    -0.359769183452E+04   -0.52957E-01   -0.38731E-02  8277   0.171E-01    0.169E+01
RMM: 226    -0.359762701323E+04    0.64821E-01   -0.57588E-02  8268   0.139E-01    0.166E+01
RMM: 227    -0.359749388207E+04    0.13313E+00   -0.23671E-02  8114   0.107E-01    0.161E+01
RMM: 228    -0.359732855884E+04    0.16532E+00   -0.32781E-01  8696   0.329E-01    0.121E+01
RMM: 229    -0.359730807101E+04    0.20488E-01   -0.96512E-02  8474   0.228E-01    0.111E+01
RMM: 230    -0.359735921950E+04   -0.51148E-01   -0.10738E-01  8597   0.187E-01    0.105E+01
RMM: 231    -0.359739768539E+04   -0.38466E-01   -0.96952E-02  8454   0.154E-01    0.112E+01
RMM: 232    -0.359741704880E+04   -0.19363E-01   -0.33102E-02  8369   0.135E-01    0.115E+01
RMM: 233    -0.359728536753E+04    0.13168E+00   -0.12856E+00  8720   0.612E-01    0.107E+01
RMM: 234    -0.359745285371E+04   -0.16749E+00   -0.23849E-01  8691   0.285E-01    0.127E+01
RMM: 235    -0.359749405999E+04   -0.41206E-01   -0.16535E-01  8628   0.259E-01    0.164E+01
RMM: 236    -0.359750446115E+04   -0.10401E-01   -0.68919E-02  8360   0.229E-01    0.168E+01
RMM: 237    -0.359732182141E+04    0.18264E+00   -0.15847E-02  7936   0.933E-02    0.164E+01
RMM: 238    -0.359753346552E+04   -0.21164E+00   -0.88606E-02  8573   0.181E-01    0.162E+01
RMM: 239    -0.359767952082E+04   -0.14606E+00   -0.44777E-02  8270   0.108E-01    0.155E+01
RMM: 240    -0.359770722396E+04   -0.27703E-01   -0.40411E-02  8330   0.119E-01    0.154E+01
RMM: 241    -0.359769774082E+04    0.94831E-02   -0.60643E-03  7535   0.668E-02    0.156E+01
RMM: 242    -0.359773408680E+04   -0.36346E-01   -0.32567E-03  6722   0.541E-02    0.160E+01
RMM: 243    -0.359830799345E+04   -0.57391E+00   -0.33852E-01  8708   0.354E-01    0.218E+01
RMM: 244    -0.359769997627E+04    0.60802E+00   -0.11441E-01  8490   0.262E-01    0.185E+01
RMM: 245    -0.359760667853E+04    0.93298E-01   -0.38096E-02  8352   0.122E-01    0.175E+01
RMM: 246    -0.359765291135E+04   -0.46233E-01   -0.58608E-02  8408   0.155E-01    0.173E+01
RMM: 247    -0.359762604686E+04    0.26864E-01   -0.11739E-02  7911   0.645E-02    0.182E+01
RMM: 248    -0.359721697069E+04    0.40908E+00   -0.27355E-01  8681   0.335E-01    0.151E+01
RMM: 249    -0.359710012118E+04    0.11685E+00   -0.10847E-01  8647   0.224E-01    0.132E+01
RMM: 250    -0.359709566947E+04    0.44517E-02   -0.68724E-02  8621   0.145E-01    0.829E+00
RMM: 251    -0.359724518828E+04   -0.14952E+00   -0.91813E-02  8585   0.230E-01    0.120E+01
RMM: 252    -0.359721100326E+04    0.34185E-01   -0.90437E-02  8554   0.173E-01    0.128E+01
RMM: 253    -0.359745033161E+04   -0.23933E+00   -0.33941E-02  8400   0.114E-01    0.157E+01
RMM: 254    -0.359743826068E+04    0.12071E-01   -0.10120E-02  7792   0.807E-02    0.158E+01
RMM: 255    -0.359744101478E+04   -0.27541E-02   -0.12107E-03  6699   0.284E-02    0.159E+01
RMM: 256    -0.359729838908E+04    0.14263E+00   -0.20863E-02  8323   0.792E-02    0.153E+01
RMM: 257    -0.359738509187E+04   -0.86703E-01   -0.95252E-03  7995   0.549E-02    0.157E+01
RMM: 258    -0.359725765451E+04    0.12744E+00   -0.28471E-02  8156   0.966E-02    0.152E+01
RMM: 259    -0.359725050248E+04    0.71520E-02   -0.31413E-03  7073   0.403E-02    0.149E+01
RMM: 260    -0.359721924304E+04    0.31259E-01   -0.19263E-02  8117   0.829E-02    0.148E+01
RMM: 261    -0.359717835369E+04    0.40889E-01   -0.69341E-03  7511   0.373E-02    0.143E+01
RMM: 262    -0.359719839389E+04   -0.20040E-01   -0.12917E-03  6341   0.280E-02    0.145E+01
RMM: 263    -0.359724627495E+04   -0.47881E-01   -0.27275E-01  8715   0.262E-01    0.124E+01
RMM: 264    -0.359720685969E+04    0.39415E-01   -0.68526E-02  8464   0.251E-01    0.122E+01
RMM: 265    -0.359724493898E+04   -0.38079E-01   -0.12863E-02  8043   0.809E-02    0.117E+01
RMM: 266    -0.359723022175E+04    0.14717E-01   -0.36291E-03  7353   0.583E-02    0.118E+01
RMM: 267    -0.359757802388E+04   -0.34780E+00   -0.93590E-02  8599   0.172E-01    0.128E+01
RMM: 268    -0.359689170288E+04    0.68632E+00   -0.11248E+00  8713   0.605E-01    0.769E+00
RMM: 269    -0.359738998655E+04   -0.49828E+00   -0.20972E-01  8681   0.358E-01    0.693E+00
RMM: 270    -0.359786214509E+04   -0.47216E+00   -0.19805E-01  8709   0.306E-01    0.139E+01
RMM: 271    -0.359786041352E+04    0.17316E-02   -0.59132E-02  8492   0.186E-01    0.144E+01
RMM: 272    -0.359781839128E+04    0.42022E-01   -0.59258E-03  7705   0.725E-02    0.146E+01
RMM: 273    -0.359824144265E+04   -0.42305E+00   -0.10896E-01  8597   0.136E-01    0.175E+01
RMM: 274    -0.359816768366E+04    0.73759E-01   -0.29363E-02  8210   0.135E-01    0.175E+01
RMM: 275    -0.359815029348E+04    0.17390E-01   -0.23351E-03  6993   0.424E-02    0.176E+01
RMM: 276    -0.359809606051E+04    0.54233E-01   -0.30660E-03  7062   0.408E-02    0.174E+01
RMM: 277    -0.359805461983E+04    0.41441E-01   -0.52819E-02  8379   0.128E-01    0.156E+01
RMM: 278    -0.359862280550E+04   -0.56819E+00   -0.29845E-01  8706   0.342E-01    0.173E+01
RMM: 279    -0.359831715946E+04    0.30565E+00   -0.10211E-01  8600   0.234E-01    0.163E+01
RMM: 280    -0.359824273893E+04    0.74421E-01   -0.48513E-02  8328   0.971E-02    0.135E+01
RMM: 281    -0.359819595087E+04    0.46788E-01   -0.26779E-02  8195   0.126E-01    0.126E+01
RMM: 282    -0.359817304651E+04    0.22904E-01   -0.56126E-03  7636   0.572E-02    0.126E+01
RMM: 283    -0.359773138118E+04    0.44167E+00   -0.17022E-01  8673   0.244E-01    0.164E+01
RMM: 284    -0.359756070557E+04    0.17068E+00   -0.60965E-02  8632   0.189E-01    0.178E+01
RMM: 285    -0.359742618170E+04    0.13452E+00   -0.39173E-02  8143   0.182E-01    0.183E+01
RMM: 286    -0.359738193016E+04    0.44252E-01   -0.43374E-03  7185   0.608E-02    0.183E+01
RMM: 287    -0.359723564411E+04    0.14629E+00   -0.10904E-02  8143   0.692E-02    0.183E+01
RMM: 288    -0.359700603962E+04    0.22960E+00   -0.10456E-01  8645   0.128E-01    0.120E+01
RMM: 289    -0.359725284869E+04   -0.24681E+00   -0.10503E-01  8529   0.294E-01    0.668E+00
RMM: 290    -0.359750475611E+04   -0.25191E+00   -0.92089E-02  8567   0.228E-01    0.630E+00
RMM: 291    -0.359755399797E+04   -0.49242E-01   -0.17728E-02  8059   0.880E-02    0.586E+00
RMM: 292    -0.359761452412E+04   -0.60526E-01   -0.12790E-01  8465   0.134E-01    0.831E+00
RMM: 293    -0.359753304382E+04    0.81480E-01   -0.22229E-02  8284   0.124E-01    0.684E+00
RMM: 294    -0.359754801628E+04   -0.14972E-01   -0.22106E-03  7052   0.405E-02    0.681E+00
RMM: 295    -0.359753846564E+04    0.95506E-02   -0.25592E-03  6609   0.307E-02    0.663E+00
RMM: 296    -0.359734495803E+04    0.19351E+00   -0.17801E-01  8562   0.188E-01    0.625E+00
RMM: 297    -0.359717125513E+04    0.17370E+00   -0.97361E-02  8388   0.116E-01    0.669E+00
RMM: 298    -0.359698488934E+04    0.18637E+00   -0.82521E-02  8385   0.118E-01    0.754E+00
RMM: 299    -0.359706458271E+04   -0.79693E-01   -0.44246E-02  8487   0.116E-01    0.845E+00
RMM: 300    -0.359729201754E+04   -0.22743E+00   -0.74651E-02  8561   0.148E-01    0.120E+01
RMM: 301    -0.359732358917E+04   -0.31572E-01   -0.24983E-02  8163   0.111E-01    0.125E+01
RMM: 302    -0.359739139640E+04   -0.67807E-01   -0.46088E-02  8395   0.833E-02    0.123E+01
RMM: 303    -0.359759801255E+04   -0.20662E+00   -0.11730E-01  8658   0.105E-01    0.121E+01
RMM: 304    -0.359777696664E+04   -0.17895E+00   -0.36755E-02  8507   0.141E-01    0.143E+01
RMM: 305    -0.359792669408E+04   -0.14973E+00   -0.34183E-02  8407   0.139E-01    0.145E+01
RMM: 306    -0.359799508121E+04   -0.68387E-01   -0.78576E-03  7886   0.530E-02    0.147E+01
RMM: 307    -0.359799852097E+04   -0.34398E-02   -0.32699E-03  7321   0.486E-02    0.143E+01
RMM: 308    -0.359786191138E+04    0.13661E+00   -0.91574E-03  8007   0.579E-02    0.137E+01
RMM: 309    -0.359784477730E+04    0.17134E-01   -0.41301E-03  7158   0.556E-02    0.138E+01
RMM: 310    -0.359796660342E+04   -0.12183E+00   -0.70784E-03  7600   0.594E-02    0.138E+01
RMM: 311    -0.359796270604E+04    0.38974E-02   -0.99131E-04  6304   0.261E-02    0.138E+01
RMM: 312    -0.359796585149E+04   -0.31454E-02   -0.72322E-04  6074   0.124E-02    0.139E+01
RMM: 313    -0.359811908805E+04   -0.15324E+00   -0.23489E-02  8323   0.748E-02    0.141E+01
RMM: 314    -0.359806189206E+04    0.57196E-01   -0.58525E-03  8034   0.554E-02    0.142E+01
RMM: 315    -0.359803623593E+04    0.25656E-01   -0.69077E-04  6522   0.184E-02    0.142E+01
RMM: 316    -0.359799759074E+04    0.38645E-01   -0.82626E-04  6361   0.149E-02    0.142E+01
RMM: 317    -0.359810572027E+04   -0.10813E+00   -0.89296E-03  8002   0.705E-02    0.140E+01
RMM: 318    -0.359813685032E+04   -0.31130E-01   -0.44086E-03  7981   0.383E-02    0.137E+01
RMM: 319    -0.359816081291E+04   -0.23963E-01   -0.21657E-03  7350   0.444E-02    0.139E+01
RMM: 320    -0.359804121977E+04    0.11959E+00   -0.12222E-02  8123   0.607E-02    0.136E+01
RMM: 321    -0.359801468264E+04    0.26537E-01   -0.16355E-03  7118   0.285E-02    0.136E+01
RMM: 322    -0.359800308893E+04    0.11594E-01   -0.11477E-02  8206   0.536E-02    0.137E+01
RMM: 323    -0.359716627779E+04    0.83681E+00   -0.38458E-01  8682   0.332E-01    0.164E+01
RMM: 324    -0.359721946496E+04   -0.53187E-01   -0.29227E-02  8337   0.171E-01    0.158E+01
RMM: 325    -0.359721856802E+04    0.89694E-03   -0.25729E-03  7552   0.501E-02    0.160E+01
RMM: 326    -0.359721922327E+04   -0.65526E-03   -0.40560E-04  6341   0.167E-02    0.159E+01
RMM: 327    -0.359718753264E+04    0.31691E-01   -0.17171E-02  8284   0.765E-02    0.160E+01
RMM: 328    -0.359691988526E+04    0.26765E+00   -0.12467E-01  8672   0.201E-01    0.133E+01
RMM: 329    -0.359697072758E+04   -0.50842E-01   -0.34817E-02  8472   0.186E-01    0.160E+01
RMM: 330    -0.359696138502E+04    0.93426E-02   -0.88678E-03  8170   0.859E-02    0.158E+01
RMM: 331    -0.359690904314E+04    0.52342E-01   -0.72773E-03  8016   0.627E-02    0.162E+01
RMM: 332    -0.359686009057E+04    0.48953E-01   -0.13586E-02  8221   0.668E-02    0.151E+01
RMM: 333    -0.359682070452E+04    0.39386E-01   -0.46713E-01  8717   0.335E-01    0.976E+00
RMM: 334    -0.359699180281E+04   -0.17110E+00   -0.56911E-02  8589   0.232E-01    0.109E+01
RMM: 335    -0.359704230813E+04   -0.50505E-01   -0.27788E-02  8417   0.954E-02    0.107E+01
RMM: 336    -0.359703127255E+04    0.11036E-01   -0.60520E-02  8645   0.111E-01    0.116E+01
RMM: 337    -0.359705086461E+04   -0.19592E-01   -0.15874E-02  8192   0.905E-02    0.110E+01
RMM: 338    -0.359768400682E+04   -0.63314E+00   -0.45045E-01  8708   0.435E-01    0.135E+01
RMM: 339    -0.359772257187E+04   -0.38565E-01   -0.89287E-02  8653   0.241E-01    0.138E+01
RMM: 340    -0.359794355229E+04   -0.22098E+00   -0.50949E-02  8625   0.135E-01    0.172E+01
RMM: 341    -0.359795382623E+04   -0.10274E-01   -0.27413E-02  8225   0.149E-01    0.168E+01
RMM: 342    -0.359795904382E+04   -0.52176E-02   -0.30784E-03  7567   0.538E-02    0.165E+01
RMM: 343    -0.359802135348E+04   -0.62310E-01   -0.57622E-02  8648   0.142E-01    0.203E+01
RMM: 344    -0.359807633722E+04   -0.54984E-01   -0.15009E-02  8249   0.102E-01    0.220E+01
RMM: 345    -0.359816122485E+04   -0.84888E-01   -0.12900E-02  8310   0.733E-02    0.235E+01
RMM: 346    -0.359821633858E+04   -0.55114E-01   -0.16272E-02  8096   0.737E-02    0.239E+01
RMM: 347    -0.359810966892E+04    0.10667E+00   -0.92843E-03  8030   0.506E-02    0.234E+01
RMM: 348    -0.359838957363E+04   -0.27990E+00   -0.47977E-02  8601   0.119E-01    0.244E+01
RMM: 349    -0.359783032250E+04    0.55925E+00   -0.63709E-02  8581   0.134E-01    0.235E+01
RMM: 350    -0.359761145400E+04    0.21887E+00   -0.13691E-01  8646   0.170E-01    0.151E+01
RMM: 351    -0.359770627582E+04   -0.94822E-01   -0.80698E-02  8473   0.171E-01    0.165E+01
RMM: 352    -0.359770971372E+04   -0.34379E-02   -0.11020E-02  8244   0.708E-02    0.161E+01
RMM: 353    -0.359768370877E+04    0.26005E-01   -0.27909E-02  8394   0.868E-02    0.149E+01
RMM: 354    -0.359768053581E+04    0.31730E-02   -0.16494E-02  8309   0.770E-02    0.133E+01
RMM: 355    -0.359776194852E+04   -0.81413E-01   -0.29868E-02  8275   0.107E-01    0.136E+01
RMM: 356    -0.359781656056E+04   -0.54612E-01   -0.81889E-03  8020   0.396E-02    0.135E+01
RMM: 357    -0.359786526544E+04   -0.48705E-01   -0.10557E-02  8139   0.415E-02    0.137E+01
RMM: 358    -0.359786090108E+04    0.43644E-02   -0.93811E-03  8067   0.653E-02    0.139E+01
RMM: 359    -0.359786353346E+04   -0.26324E-02   -0.68280E-04  6314   0.229E-02    0.139E+01
RMM: 360    -0.359788785890E+04   -0.24325E-01   -0.18479E-03  7232   0.195E-02    0.140E+01
RMM: 361    -0.359792991612E+04   -0.42057E-01   -0.22718E-02  8317   0.732E-02    0.145E+01
RMM: 362    -0.359793524566E+04   -0.53295E-02   -0.25119E-03  7108   0.449E-02    0.145E+01
RMM: 363    -0.359774955180E+04    0.18569E+00   -0.27964E-01  8695   0.245E-01    0.133E+01
RMM: 364    -0.359765876913E+04    0.90783E-01   -0.60979E-02  8668   0.111E-01    0.134E+01
RMM: 365    -0.359766748144E+04   -0.87123E-02   -0.32547E-03  7943   0.414E-02    0.134E+01
RMM: 366    -0.359766699484E+04    0.48660E-03   -0.22288E-03  7442   0.387E-02    0.134E+01
RMM: 367    -0.359766260005E+04    0.43948E-02   -0.16593E-03  7266   0.223E-02    0.135E+01
RMM: 368    -0.359762694413E+04    0.35656E-01   -0.98031E-02  8638   0.185E-01    0.134E+01
RMM: 369    -0.359771712169E+04   -0.90178E-01   -0.44745E-02  8660   0.116E-01    0.136E+01
RMM: 370    -0.359827838179E+04   -0.56126E+00   -0.15866E-01  8715   0.191E-01    0.195E+01
RMM: 371    -0.359832585489E+04   -0.47473E-01   -0.57510E-02  8503   0.229E-01    0.209E+01
RMM: 372    -0.359837176173E+04   -0.45907E-01   -0.21113E-02  8379   0.136E-01    0.222E+01
RMM: 373    -0.359943190378E+04   -0.10601E+01   -0.31564E-01  8707   0.296E-01    0.302E+01
RMM: 374    -0.359956380945E+04   -0.13191E+00   -0.44862E-02  8478   0.174E-01    0.315E+01
RMM: 375    -0.359903090111E+04    0.53291E+00   -0.13557E-02  8430   0.772E-02    0.295E+01
RMM: 376    -0.359899756451E+04    0.33337E-01   -0.21650E-03  7239   0.323E-02    0.291E+01
RMM: 377    -0.359899382216E+04    0.37423E-02   -0.85458E-04  6619   0.240E-02    0.290E+01
RMM: 378    -0.359815146001E+04    0.84236E+00   -0.42174E-01  8707   0.298E-01    0.219E+01
RMM: 379    -0.359760423965E+04    0.54722E+00   -0.34969E-01  8710   0.330E-01    0.190E+01
RMM: 380    -0.359879843586E+04   -0.11942E+01   -0.26278E-01  8707   0.269E-01    0.224E+01
RMM: 381    -0.359867508460E+04    0.12335E+00   -0.31479E-02  8414   0.125E-01    0.228E+01
RMM: 382    -0.359830209235E+04    0.37299E+00   -0.43283E-02  8498   0.954E-02    0.216E+01
RMM: 383    -0.360451480040E+04   -0.62127E+01   -0.11419E+01  8722   0.158E+00    0.546E+01
RMM: 384    -0.360087320522E+04    0.36416E+01   -0.18723E+00  8719   0.700E-01    0.464E+01
RMM: 385    -0.359825341989E+04    0.26198E+01   -0.26515E-01  8699   0.265E-01    0.320E+01
RMM: 386    -0.359860581548E+04   -0.35240E+00   -0.70453E-02  8583   0.224E-01    0.313E+01
RMM: 387    -0.359862251315E+04   -0.16698E-01   -0.19746E-02  8299   0.819E-02    0.311E+01
RMM: 388    -0.359658485032E+04    0.20377E+01   -0.87538E-01  8720   0.414E-01    0.195E+01
RMM: 389    -0.359581022163E+04    0.77463E+00   -0.27719E-01  8645   0.321E-01    0.194E+01
RMM: 390    -0.358979683804E+04    0.60134E+01   -0.16982E+00  8692   0.510E-01    0.209E+01
RMM: 391    -0.357618798405E+04    0.13609E+02   -0.27718E+00  8718   0.683E-01    0.264E+01
RMM: 392    -0.357581002696E+04    0.37796E+00   -0.76490E-02  8520   0.205E-01    0.264E+01
RMM: 393    -0.359412971743E+04   -0.18320E+02   -0.78199E+00  8724   0.115E+00    0.216E+01
RMM: 394    -0.359435121799E+04   -0.22150E+00   -0.30749E-01  8646   0.380E-01    0.176E+01
RMM: 395    -0.359401725979E+04    0.33396E+00   -0.62897E-02  8527   0.153E-01    0.174E+01
RMM: 396    -0.359107686072E+04    0.29404E+01   -0.58724E-01  8661   0.352E-01    0.175E+01
RMM: 397    -0.358957450533E+04    0.15024E+01   -0.23234E-01  8613   0.234E-01    0.176E+01
RMM: 398    -0.359452883235E+04   -0.49543E+01   -0.11709E+00  8718   0.457E-01    0.176E+01
RMM: 399    -0.359218863535E+04    0.23402E+01   -0.44812E-01  8657   0.368E-01    0.167E+01
RMM: 400    -0.359122651406E+04    0.96212E+00   -0.37458E-01  8707   0.302E-01    0.168E+01
RMM: 401    -0.359154206189E+04   -0.31555E+00   -0.17772E-01  8666   0.209E-01    0.153E+01
RMM: 402    -0.359265670935E+04   -0.11146E+01   -0.31780E-01  8639   0.239E-01    0.150E+01
RMM: 403    -0.359155125793E+04    0.11055E+01   -0.11212E-01  8531   0.222E-01    0.151E+01
RMM: 404    -0.359109655037E+04    0.45471E+00   -0.11216E-01  8681   0.167E-01    0.152E+01
RMM: 405    -0.359097603846E+04    0.12051E+00   -0.17177E-02  8367   0.125E-01    0.146E+01
RMM: 406    -0.359101921560E+04   -0.43177E-01   -0.24666E-03  7725   0.454E-02    0.146E+01
RMM: 407    -0.359101645333E+04    0.27623E-02   -0.23199E-04  6284   0.141E-02    0.146E+01
RMM: 408    -0.359788412392E+04   -0.68677E+01   -0.79776E+00  8720   0.116E+00    0.178E+01
RMM: 409    -0.359798257618E+04   -0.98452E-01   -0.55100E-01  8715   0.454E-01    0.154E+01
RMM: 410    -0.359818748542E+04   -0.20491E+00   -0.19687E-01  8692   0.311E-01    0.137E+01
RMM: 411    -0.359855417784E+04   -0.36669E+00   -0.70713E-02  8679   0.131E-01    0.176E+01
RMM: 412    -0.359856433778E+04   -0.10160E-01   -0.43135E-02  8484   0.212E-01    0.177E+01
RMM: 413    -0.359805480797E+04    0.50953E+00   -0.48470E-01  8716   0.265E-01    0.164E+01
RMM: 414    -0.359826080589E+04   -0.20600E+00   -0.31502E-01  8665   0.390E-01    0.166E+01
RMM: 415    -0.359832515665E+04   -0.64351E-01   -0.19314E-02  8442   0.938E-02    0.162E+01
RMM: 416    -0.359828713662E+04    0.38020E-01   -0.36072E-03  7632   0.425E-02    0.162E+01
RMM: 417    -0.359828125340E+04    0.58832E-02   -0.22969E-04  6128   0.126E-02    0.162E+01
RMM: 418    -0.359855427900E+04   -0.27303E+00   -0.28910E-01  8703   0.244E-01    0.171E+01
RMM: 419    -0.359856982971E+04   -0.15551E-01   -0.12414E-02  8415   0.931E-02    0.170E+01
RMM: 420    -0.359821882984E+04    0.35100E+00   -0.13298E-01  8667   0.172E-01    0.177E+01
RMM: 421    -0.359819581381E+04    0.23016E-01   -0.10195E-02  8279   0.703E-02    0.177E+01
RMM: 422    -0.359807003189E+04    0.12578E+00   -0.20699E-02  8361   0.652E-02    0.175E+01
RMM: 423    -0.359852803379E+04   -0.45800E+00   -0.39067E-01  8648   0.255E-01    0.189E+01
RMM: 424    -0.359857950402E+04   -0.51470E-01   -0.17624E-01  8685   0.249E-01    0.178E+01
RMM: 425    -0.359867717000E+04   -0.97666E-01   -0.45720E-02  8543   0.142E-01    0.172E+01
RMM: 426    -0.359874599634E+04   -0.68826E-01   -0.84423E-02  8640   0.145E-01    0.157E+01
RMM: 427    -0.359897528341E+04   -0.22929E+00   -0.98601E-02  8567   0.138E-01    0.161E+01
RMM: 428    -0.359906176701E+04   -0.86484E-01   -0.36982E-02  8465   0.102E-01    0.155E+01
RMM: 429    -0.359914356753E+04   -0.81801E-01   -0.34819E-02  8564   0.108E-01    0.161E+01
RMM: 430    -0.359913285034E+04    0.10717E-01   -0.41154E-03  7964   0.712E-02    0.161E+01
RMM: 431    -0.359910480602E+04    0.28044E-01   -0.32220E-03  8217   0.413E-02    0.166E+01
RMM: 432    -0.359897170987E+04    0.13310E+00   -0.25303E-02  8546   0.100E-01    0.169E+01
RMM: 433    -0.359893912597E+04    0.32584E-01   -0.17641E+00  8714   0.548E-01    0.166E+01
RMM: 434    -0.359825718983E+04    0.68194E+00   -0.62427E-01  8712   0.444E-01    0.189E+01
RMM: 435    -0.359833291983E+04   -0.75730E-01   -0.69431E-02  8609   0.206E-01    0.180E+01
RMM: 436    -0.359832574518E+04    0.71747E-02   -0.10680E-01  8638   0.139E-01    0.162E+01
RMM: 437    -0.359830948336E+04    0.16262E-01   -0.14514E-02  8318   0.938E-02    0.155E+01
RMM: 438    -0.359890749821E+04   -0.59801E+00   -0.35707E-01  8670   0.308E-01    0.150E+01
RMM: 439    -0.359910437546E+04   -0.19688E+00   -0.25675E-01  8697   0.268E-01    0.111E+01
RMM: 440    -0.359921002409E+04   -0.10565E+00   -0.63919E-02  8614   0.191E-01    0.103E+01
RMM: 441    -0.359926054640E+04   -0.50522E-01   -0.24556E-02  8516   0.979E-02    0.999E+00
RMM: 442    -0.359925088882E+04    0.96576E-02   -0.14587E-03  7487   0.310E-02    0.996E+00
RMM: 443    -0.359936244193E+04   -0.11155E+00   -0.21792E-01  8679   0.204E-01    0.107E+01
RMM: 444    -0.359876710417E+04    0.59534E+00   -0.19051E-01  8675   0.219E-01    0.102E+01
RMM: 445    -0.359855509961E+04    0.21200E+00   -0.98415E-02  8575   0.180E-01    0.104E+01
RMM: 446    -0.359843717920E+04    0.11792E+00   -0.19791E-01  8641   0.196E-01    0.140E+01
RMM: 447    -0.359836238559E+04    0.74794E-01   -0.75817E-02  8584   0.166E-01    0.116E+01
RMM: 448    -0.359829540277E+04    0.66983E-01   -0.98241E-01  8702   0.455E-01    0.156E+01
RMM: 449    -0.359836075239E+04   -0.65350E-01   -0.38433E-01  8653   0.333E-01    0.147E+01
RMM: 450    -0.359832525262E+04    0.35500E-01   -0.24983E-02  8370   0.106E-01    0.146E+01
RMM: 451    -0.359814990509E+04    0.17535E+00   -0.33031E-02  8620   0.818E-02    0.133E+01
RMM: 452    -0.359811820163E+04    0.31703E-01   -0.11403E-02  8524   0.554E-02    0.127E+01
RMM: 453    -0.359833399282E+04   -0.21579E+00   -0.15589E-01  8641   0.147E-01    0.137E+01
RMM: 454    -0.359830687135E+04    0.27121E-01   -0.87646E-02  8541   0.135E-01    0.137E+01
RMM: 455    -0.359842985376E+04   -0.12298E+00   -0.95310E-02  8605   0.144E-01    0.108E+01
RMM: 456    -0.359863314105E+04   -0.20329E+00   -0.57679E-02  8556   0.132E-01    0.108E+01
RMM: 457    -0.359875179517E+04   -0.11865E+00   -0.31339E-02  8455   0.719E-02    0.115E+01
RMM: 458    -0.359883947534E+04   -0.87680E-01   -0.26168E-01  8669   0.230E-01    0.132E+01
RMM: 459    -0.359880997712E+04    0.29498E-01   -0.17167E-02  8307   0.961E-02    0.132E+01
RMM: 460    -0.359874760741E+04    0.62370E-01   -0.13030E-02  8361   0.559E-02    0.133E+01
RMM: 461    -0.359872855217E+04    0.19055E-01   -0.63718E-03  8168   0.312E-02    0.133E+01
RMM: 462    -0.359871038428E+04    0.18168E-01   -0.64810E-03  8074   0.280E-02    0.133E+01
RMM: 463    -0.359878841223E+04   -0.78028E-01   -0.10738E-01  8670   0.112E-01    0.112E+01
RMM: 464    -0.359863809638E+04    0.15032E+00   -0.12097E-01  8704   0.174E-01    0.110E+01
RMM: 465    -0.359859871610E+04    0.39380E-01   -0.14028E-02  8637   0.602E-02    0.108E+01
RMM: 466    -0.359860344782E+04   -0.47317E-02   -0.94739E-04  7764   0.236E-02    0.108E+01
RMM: 467    -0.359860425713E+04   -0.80930E-03   -0.12410E-04  5955   0.856E-03    0.108E+01
RMM: 468    -0.359866918235E+04   -0.64925E-01   -0.53165E-02  8605   0.122E-01    0.125E+01
RMM: 469    -0.359862193951E+04    0.47243E-01   -0.13865E-02  8504   0.692E-02    0.117E+01
RMM: 470    -0.359864547397E+04   -0.23534E-01   -0.48783E-03  8236   0.505E-02    0.122E+01
RMM: 471    -0.359860288065E+04    0.42593E-01   -0.30217E-02  8602   0.110E-01    0.120E+01
RMM: 472    -0.359861715459E+04   -0.14274E-01   -0.30808E-03  7916   0.560E-02    0.119E+01
RMM: 473    -0.359904789166E+04   -0.43074E+00   -0.33733E-01  8718   0.302E-01    0.118E+01
RMM: 474    -0.359907469895E+04   -0.26807E-01   -0.89089E-02  8682   0.206E-01    0.955E+00
RMM: 475    -0.359905029864E+04    0.24400E-01   -0.15436E-01  8704   0.184E-01    0.690E+00
RMM: 476    -0.359901248034E+04    0.37818E-01   -0.76619E-02  8641   0.178E-01    0.638E+00
RMM: 477    -0.359906348190E+04   -0.51002E-01   -0.75759E-02  8658   0.140E-01    0.738E+00
RMM: 478    -0.359918659914E+04   -0.12312E+00   -0.41709E-01  8700   0.366E-01    0.681E+00
RMM: 479    -0.359924570181E+04   -0.59103E-01   -0.18797E-01  8665   0.257E-01    0.495E+00
RMM: 480    -0.359921635178E+04    0.29350E-01   -0.17097E-01  8617   0.153E-01    0.476E+00
RMM: 481    -0.359919043283E+04    0.25919E-01   -0.53647E-02  8569   0.960E-02    0.462E+00
RMM: 482    -0.359937806362E+04   -0.18763E+00   -0.11526E-01  8636   0.117E-01    0.995E+00
RMM: 483    -0.359954588550E+04   -0.16782E+00   -0.28524E-01  8702   0.270E-01    0.126E+01
RMM: 484    -0.359939617436E+04    0.14971E+00   -0.37785E-02  8575   0.162E-01    0.995E+00
RMM: 485    -0.359949371921E+04   -0.97545E-01   -0.49987E-02  8636   0.109E-01    0.127E+01
RMM: 486    -0.359956461363E+04   -0.70894E-01   -0.82326E-03  8422   0.789E-02    0.153E+01
RMM: 487    -0.359941285108E+04    0.15176E+00   -0.30526E-02  8618   0.137E-01    0.138E+01
RMM: 488    -0.359936222247E+04    0.50629E-01   -0.11501E-01  8693   0.178E-01    0.898E+00
RMM: 489    -0.359935206340E+04    0.10159E-01   -0.42138E-02  8631   0.155E-01    0.836E+00
RMM: 490    -0.359935919493E+04   -0.71315E-02   -0.60451E-02  8644   0.125E-01    0.786E+00
RMM: 491    -0.359938814230E+04   -0.28947E-01   -0.22342E-02  8504   0.636E-02    0.681E+00
RMM: 492    -0.359938576186E+04    0.23804E-02   -0.27749E-02  8528   0.731E-02    0.386E+00
RMM: 493    -0.359932075843E+04    0.65003E-01   -0.64720E-02  8633   0.144E-01    0.422E+00
RMM: 494    -0.359931196351E+04    0.87949E-02   -0.18367E-02  8560   0.649E-02    0.521E+00
RMM: 495    -0.359931843921E+04   -0.64757E-02   -0.45253E-03  8348   0.466E-02    0.634E+00
RMM: 496    -0.359930650357E+04    0.11936E-01   -0.27816E-03  7950   0.338E-02    0.634E+00
RMM: 497    -0.359929954215E+04    0.69614E-02   -0.14066E-03  7890   0.178E-02    0.616E+00
RMM: 498    -0.359931216584E+04   -0.12624E-01   -0.85110E-04  7252   0.199E-02    0.629E+00
RMM: 499    -0.359931001082E+04    0.21550E-02   -0.58326E-05  4831   0.535E-03    0.631E+00
RMM: 500    -0.359931014728E+04   -0.13646E-03   -0.62074E-06  3810   0.226E-03    0.633E+00
RMM: 501    -0.359930228503E+04    0.78622E-02   -0.19035E-03  7100   0.194E-02    0.615E+00
RMM: 502    -0.359930212609E+04    0.15895E-03   -0.29954E-04  6190   0.703E-03    0.617E+00
RMM: 503    -0.359930813589E+04   -0.60098E-02   -0.47274E-03  8145   0.358E-02    0.566E+00
RMM: 504    -0.359931341992E+04   -0.52840E-02   -0.35519E-04  6604   0.124E-02    0.564E+00
RMM: 505    -0.359931475045E+04   -0.13305E-02   -0.57669E-05  5070   0.451E-03    0.558E+00
RMM: 506    -0.359931418496E+04    0.56549E-03   -0.89959E-04  7576   0.154E-02    0.581E+00
RMM: 507    -0.359931436975E+04   -0.18480E-03   -0.24338E-03  7910   0.277E-02    0.551E+00
RMM: 508    -0.359930886719E+04    0.55026E-02   -0.43501E-03  8540   0.387E-02    0.482E+00
RMM: 509    -0.359930486519E+04    0.40020E-02   -0.20274E-03  8258   0.246E-02    0.478E+00
RMM: 510    -0.359929655439E+04    0.83108E-02   -0.22675E-03  8376   0.202E-02    0.473E+00
RMM: 511    -0.359930110376E+04   -0.45494E-02   -0.84341E-04  7615   0.235E-02    0.465E+00
RMM: 512    -0.359931978223E+04   -0.18678E-01   -0.13529E-02  8607   0.523E-02    0.420E+00
RMM: 513    -0.359933420747E+04   -0.14425E-01   -0.88728E-02  8693   0.177E-01    0.459E+00
RMM: 514    -0.359935551060E+04   -0.21303E-01   -0.71994E-03  8423   0.708E-02    0.424E+00
RMM: 515    -0.359932057087E+04    0.34940E-01   -0.23944E-02  8655   0.740E-02    0.560E+00
RMM: 516    -0.359934134426E+04   -0.20773E-01   -0.80637E-02  8666   0.173E-01    0.378E+00
RMM: 517    -0.359932958398E+04    0.11760E-01   -0.25774E-02  8674   0.768E-02    0.398E+00
RMM: 518    -0.359936834342E+04   -0.38759E-01   -0.14170E-01  8708   0.176E-01    0.411E+00
RMM: 519    -0.359941951520E+04   -0.51172E-01   -0.10497E-02  8318   0.757E-02    0.423E+00
RMM: 520    -0.359942285522E+04   -0.33400E-02   -0.25548E-03  7547   0.510E-02    0.422E+00
RMM: 521    -0.359942709956E+04   -0.42443E-02   -0.24284E-04  6581   0.131E-02    0.419E+00
RMM: 522    -0.359943464146E+04   -0.75419E-02   -0.62574E-04  7498   0.119E-02    0.425E+00
RMM: 523    -0.359945438413E+04   -0.19743E-01   -0.35185E-02  8631   0.921E-02    0.482E+00
RMM: 524    -0.359945259280E+04    0.17913E-02   -0.12292E-03  7653   0.300E-02    0.476E+00
RMM: 525    -0.359945223129E+04    0.36151E-03   -0.12425E-04  5820   0.101E-02    0.472E+00
RMM: 526    -0.359945753896E+04   -0.53077E-02   -0.14345E-03  7664   0.179E-02    0.483E+00
RMM: 527    -0.359946068291E+04   -0.31439E-02   -0.14578E-03  7943   0.172E-02    0.482E+00
RMM: 528    -0.359935242515E+04    0.10826E+00   -0.10441E+00  8720   0.502E-01    0.136E+01
RMM: 529    -0.359929659351E+04    0.55832E-01   -0.48998E-01  8671   0.379E-01    0.768E+00
RMM: 530    -0.359924622336E+04    0.50370E-01   -0.13341E-01  8631   0.230E-01    0.644E+00
RMM: 531    -0.359922474607E+04    0.21477E-01   -0.30519E-02  8678   0.955E-02    0.794E+00
RMM: 532    -0.359926144784E+04   -0.36702E-01   -0.12180E-01  8672   0.199E-01    0.657E+00
RMM: 533    -0.359931641685E+04   -0.54969E-01   -0.44684E-02  8579   0.133E-01    0.383E+00
RMM: 534    -0.359935147431E+04   -0.35057E-01   -0.23218E-02  8474   0.121E-01    0.379E+00
RMM: 535    -0.359934564492E+04    0.58294E-02   -0.33193E-03  7864   0.500E-02    0.383E+00
RMM: 536    -0.359933730810E+04    0.83368E-02   -0.34060E-03  7970   0.246E-02    0.375E+00
RMM: 537    -0.359933261783E+04    0.46903E-02   -0.18877E-02  8529   0.715E-02    0.341E+00
RMM: 538    -0.359933356232E+04   -0.94449E-03   -0.13651E-02  8203   0.503E-02    0.336E+00
RMM: 539    -0.359933229540E+04    0.12669E-02   -0.10819E-03  7326   0.249E-02    0.331E+00
RMM: 540    -0.359933227730E+04    0.18102E-04   -0.72261E-04  7928   0.175E-02    0.346E+00
RMM: 541    -0.359932736314E+04    0.49142E-02   -0.96067E-04  7346   0.265E-02    0.338E+00
RMM: 542    -0.359938384468E+04   -0.56482E-01   -0.16817E-02  8642   0.634E-02    0.708E+00
RMM: 543    -0.359942718557E+04   -0.43341E-01   -0.26752E-02  8555   0.124E-01    0.937E+00
RMM: 544    -0.359935883973E+04    0.68346E-01   -0.13855E-02  8475   0.997E-02    0.815E+00
RMM: 545    -0.359940114607E+04   -0.42306E-01   -0.34152E-03  8106   0.366E-02    0.869E+00
RMM: 546    -0.359937667709E+04    0.24469E-01   -0.66507E-03  8112   0.302E-02    0.763E+00
RMM: 547    -0.359937882881E+04   -0.21517E-02   -0.14369E-03  7683   0.284E-02    0.727E+00
RMM: 548    -0.359940657596E+04   -0.27747E-01   -0.44228E-03  8045   0.396E-02    0.779E+00
RMM: 549    -0.359941820661E+04   -0.11631E-01   -0.14305E-03  7588   0.215E-02    0.770E+00
RMM: 550    -0.359940399464E+04    0.14212E-01   -0.48772E-04  6852   0.179E-02    0.765E+00
RMM: 551    -0.359941006649E+04   -0.60719E-02   -0.23214E-03  7595   0.235E-02    0.834E+00
RMM: 552    -0.359936804913E+04    0.42017E-01   -0.34935E-02  8698   0.961E-02    0.698E+00
RMM: 553    -0.359936977901E+04   -0.17299E-02   -0.51848E-02  8704   0.191E-01    0.670E+00
RMM: 554    -0.359934880638E+04    0.20973E-01   -0.56178E-03  8545   0.642E-02    0.590E+00
RMM: 555    -0.359934959926E+04   -0.79288E-03   -0.44796E-03  8638   0.439E-02    0.578E+00
RMM: 556    -0.359935161183E+04   -0.20126E-02   -0.42566E-03  8670   0.343E-02    0.535E+00
RMM: 557    -0.359935612250E+04   -0.45107E-02   -0.22211E-02  8721   0.782E-02    0.320E+00
RMM: 558    -0.359944817910E+04   -0.92057E-01   -0.32119E-02  8714   0.126E-01    0.377E+00
RMM: 559    -0.359942958477E+04    0.18594E-01   -0.10667E-02  8503   0.786E-02    0.339E+00
RMM: 560    -0.359945341152E+04   -0.23827E-01   -0.14334E-02  8684   0.591E-02    0.324E+00
RMM: 561    -0.359944961121E+04    0.38003E-02   -0.51915E-03  8437   0.485E-02    0.277E+00
RMM: 562    -0.359944920973E+04    0.40148E-03   -0.24017E-03  8120   0.363E-02    0.288E+00
RMM: 563    -0.359945388961E+04   -0.46799E-02   -0.33846E-03  8476   0.418E-02    0.314E+00
RMM: 564    -0.359943836882E+04    0.15521E-01   -0.19962E-03  8135   0.347E-02    0.292E+00
RMM: 565    -0.359943318949E+04    0.51793E-02   -0.58873E-04  7624   0.158E-02    0.281E+00
RMM: 566    -0.359942885972E+04    0.43298E-02   -0.47905E-03  8095   0.373E-02    0.196E+00
RMM: 567    -0.359943453090E+04   -0.56712E-02   -0.41615E-03  8233   0.431E-02    0.217E+00
RMM: 568    -0.359945351745E+04   -0.18987E-01   -0.62742E-03  8640   0.467E-02    0.207E+00
RMM: 569    -0.359946276601E+04   -0.92486E-02   -0.16871E-03  8324   0.305E-02    0.200E+00
RMM: 570    -0.359947102092E+04   -0.82549E-02   -0.64703E-03  8563   0.463E-02    0.179E+00
RMM: 571    -0.359947462249E+04   -0.36016E-02   -0.31001E-03  7863   0.529E-02    0.176E+00
RMM: 572    -0.359947675187E+04   -0.21294E-02   -0.16375E-03  7598   0.243E-02    0.163E+00
RMM: 573    -0.359948396526E+04   -0.72134E-02   -0.29594E-03  8350   0.365E-02    0.163E+00
RMM: 574    -0.359949194726E+04   -0.79820E-02   -0.27647E-03  8275   0.276E-02    0.152E+00
RMM: 575    -0.359949114961E+04    0.79765E-03   -0.15482E-03  7757   0.198E-02    0.150E+00
RMM: 576    -0.359948542349E+04    0.57261E-02   -0.10583E-03  8013   0.214E-02    0.173E+00
RMM: 577    -0.359947780348E+04    0.76200E-02   -0.11286E-03  8005   0.269E-02    0.181E+00
RMM: 578    -0.359947335161E+04    0.44519E-02   -0.81731E-04  7713   0.174E-02    0.189E+00
RMM: 579    -0.359946618958E+04    0.71620E-02   -0.63340E-04  7870   0.160E-02    0.168E+00
RMM: 580    -0.359945728021E+04    0.89094E-02   -0.70964E-04  8156   0.158E-02    0.146E+00
RMM: 581    -0.359944733689E+04    0.99433E-02   -0.10709E-03  8398   0.213E-02    0.137E+00
RMM: 582    -0.359944007453E+04    0.72624E-02   -0.11185E-03  8225   0.268E-02    0.128E+00
RMM: 583    -0.359941500476E+04    0.25070E-01   -0.83554E-03  8695   0.562E-02    0.155E+00
RMM: 584    -0.359940601206E+04    0.89927E-02   -0.22919E-03  8510   0.425E-02    0.134E+00
RMM: 585    -0.359940276116E+04    0.32509E-02   -0.41050E-04  7812   0.159E-02    0.130E+00
RMM: 586    -0.359938882958E+04    0.13932E-01   -0.20119E-03  8603   0.267E-02    0.119E+00
RMM: 587    -0.359936960861E+04    0.19221E-01   -0.45554E-03  8690   0.343E-02    0.109E+00
RMM: 588    -0.359937227715E+04   -0.26685E-02   -0.68794E-04  7881   0.285E-02    0.103E+00
RMM: 589    -0.359936397813E+04    0.82990E-02   -0.16191E-03  8516   0.283E-02    0.854E-01
RMM: 590    -0.359935270960E+04    0.11269E-01   -0.30097E-03  8653   0.281E-02    0.670E-01
RMM: 591    -0.359934419364E+04    0.85160E-02   -0.30735E-03  8663   0.303E-02    0.581E-01
RMM: 592    -0.359934031583E+04    0.38778E-02   -0.11706E-03  8493   0.202E-02    0.556E-01
RMM: 593    -0.359938872212E+04   -0.48406E-01   -0.20070E-02  8721   0.780E-02    0.663E+00
RMM: 594    -0.359932323779E+04    0.65484E-01   -0.63678E-02  8721   0.179E-01    0.758E-01
RMM: 595    -0.359934398356E+04   -0.20746E-01   -0.15822E-02  8695   0.132E-01    0.557E-01
RMM: 596    -0.359934372013E+04    0.26343E-03   -0.96760E-04  8063   0.345E-02    0.546E-01
RMM: 597    -0.359934093274E+04    0.27874E-02   -0.47074E-04  8105   0.159E-02    0.467E-01
RMM: 598    -0.359933963875E+04    0.12940E-02   -0.24546E-04  7652   0.110E-02    0.417E-01
RMM: 599    -0.359933499039E+04    0.46484E-02   -0.15606E-03  8580   0.217E-02    0.316E-01
RMM: 600    -0.359933331608E+04    0.16743E-02   -0.63769E-04  8256   0.137E-02    0.231E-01
RMM: 601    -0.359933312911E+04    0.18697E-03   -0.95717E-05  7091   0.789E-03    0.182E-01
RMM: 602    -0.359933320064E+04   -0.71529E-04   -0.34681E-05  4845   0.652E-03    0.196E-01
RMM: 603    -0.359933380994E+04   -0.60929E-03   -0.68969E-05  6756   0.524E-03    0.242E-01
RMM: 604    -0.359933366691E+04    0.14302E-03   -0.68993E-05  5538   0.723E-03    0.224E-01
RMM: 605    -0.359933385462E+04   -0.18771E-03   -0.17145E-05  4523   0.384E-03    0.232E-01
RMM: 606    -0.359933424965E+04   -0.39503E-03   -0.41373E-05  5831   0.439E-03    0.255E-01
RMM: 607    -0.359933420942E+04    0.40226E-04   -0.21429E-05  4261   0.287E-03    0.252E-01
RMM: 608    -0.359933472685E+04   -0.51743E-03   -0.55772E-05  6296   0.580E-03    0.273E-01
RMM: 609    -0.359933474394E+04   -0.17088E-04   -0.70047E-06  3992   0.301E-03    0.274E-01
RMM: 610    -0.359933426012E+04    0.48382E-03   -0.42375E-05  5803   0.544E-03    0.253E-01
RMM: 611    -0.359933427453E+04   -0.14406E-04   -0.47129E-06  3769   0.239E-03    0.252E-01
RMM: 612    -0.359933412300E+04    0.15153E-03   -0.22962E-05  4804   0.397E-03    0.239E-01
RMM: 613    -0.359933404372E+04    0.79276E-04   -0.24957E-05  4836   0.298E-03    0.230E-01
RMM: 614    -0.359933403396E+04    0.97648E-05   -0.25855E-05  4307   0.356E-03    0.228E-01
RMM: 615    -0.359933403935E+04   -0.53905E-05   -0.83720E-06  3770   0.209E-03    0.226E-01
RMM: 616    -0.359933377225E+04    0.26710E-03   -0.26011E-04  5694   0.151E-02    0.243E-01
RMM: 617    -0.359933422876E+04   -0.45652E-03   -0.12543E-04  5046   0.114E-02    0.241E-01
RMM: 618    -0.359933420667E+04    0.22090E-04   -0.30261E-05  4206   0.447E-03    0.245E-01
RMM: 619    -0.359933418695E+04    0.19726E-04   -0.65316E-06  3607   0.223E-03    0.241E-01
RMM: 620    -0.359933417507E+04    0.11873E-04   -0.23272E-06  3358   0.157E-03    0.240E-01
RMM: 621    -0.359933409223E+04    0.82845E-04   -0.84881E-06  3748   0.286E-03    0.237E-01
RMM: 622    -0.359933410500E+04   -0.12769E-04   -0.45724E-07  2761   0.713E-04    0.237E-01
RMM: 623    -0.359933406370E+04    0.41297E-04   -0.59841E-07  2965   0.484E-04    0.233E-01
RMM: 624    -0.359933396582E+04    0.97886E-04   -0.62218E-06  4054   0.196E-03    0.223E-01
RMM: 625    -0.359933384613E+04    0.11968E-03   -0.70047E-06  4228   0.154E-03    0.210E-01
RMM: 626    -0.359933374867E+04    0.97464E-04   -0.89678E-06  4268   0.179E-03    0.195E-01
RMM: 627    -0.359933365844E+04    0.90233E-04   -0.17612E-05  4584   0.271E-03    0.174E-01
RMM: 628    -0.359933360885E+04    0.49591E-04   -0.16720E-05  4320   0.215E-03    0.155E-01
RMM: 629    -0.359933367605E+04   -0.67201E-04   -0.62456E-06  3676   0.212E-03    0.161E-01
RMM: 630    -0.359933365978E+04    0.16272E-04   -0.69540E-06  3720   0.294E-03    0.163E-01
RMM: 631    -0.359933365886E+04    0.91191E-06   -0.30530E-07  2736   0.630E-04
 augmentation electrons   1798.88240078443     
 soft         electrons  0.000000000000000E+000
 total        electrons   1798.88240078443     
 augmentation electrons -6.905705662334953E-002
 soft         electrons  0.000000000000000E+000
 total        electrons -6.905705662334953E-002
 augmentation electrons   1912.58212136416     
 soft         electrons  0.000000000000000E+000
 total        electrons   1912.58212136416     
 augmentation electrons   1855.42445483216     
 soft         electrons  0.000000000000000E+000
 total        electrons   1855.42445483216     
 augmentation electrons   47.3756982510445     
 soft         electrons   1751.50662441697     
 total        electrons   1798.88232266802     
 augmentation electrons   30.6969176963204     
 soft         electrons   1751.50662441697     
 total        electrons   49.4855212902777     
 translations:           0           1           0
   1 F= -.36368841E+04 E0= -.36368605E+04  d E =-.363688E+04  mag=    49.5546
 curvature:   0.00 expect dE= 0.000E+00 dE for cont linesearch  0.000E+00
 trial: gam= 0.00000 g(F)=  0.244E+00 g(S)=  0.000E+00 ort = 0.000E+00 (trialstep = 0.100E+01)
 search vector abs. value=  0.244E+00
 bond charge predicted
       N       E                     dE             d eps       ncg     rms          rms(c)
RMM:   1    -0.359988681780E+04   -0.55316E+00   -0.16498E+01  5120   0.228E+00    0.117E+01
RMM:   2    -0.362060350866E+04   -0.20717E+02   -0.18312E+01  5329   0.187E+00    0.665E+01
RMM:   3    -0.359871086899E+04    0.21893E+02   -0.45107E+00  5281   0.969E-01    0.152E+01
RMM:   4    -0.360008435159E+04   -0.13735E+01   -0.10338E+00  5290   0.543E-01    0.195E+01
RMM:   5    -0.359994541631E+04    0.13894E+00   -0.33583E-01  5251   0.334E-01    0.160E+01
RMM:   6    -0.359945989816E+04    0.48552E+00   -0.84627E-02  5222   0.239E-01    0.100E+01
RMM:   7    -0.359965370235E+04   -0.19380E+00   -0.80853E-02  5291   0.148E-01    0.109E+01
RMM:   8    -0.359944258050E+04    0.21112E+00   -0.48786E-02  5283   0.197E-01    0.110E+01
RMM:   9    -0.359958089674E+04   -0.13832E+00   -0.21675E-02  5183   0.714E-02    0.115E+01
RMM:  10    -0.359955124924E+04    0.29647E-01   -0.23719E-02  5215   0.557E-02    0.114E+01
RMM:  11    -0.359954690723E+04    0.43420E-02   -0.17415E-03  5093   0.191E-02    0.114E+01
RMM:  12    -0.359951154283E+04    0.35364E-01   -0.12223E-02  5257   0.368E-02    0.113E+01
RMM:  13    -0.359952127972E+04   -0.97369E-02   -0.94836E-04  5132   0.244E-02    0.113E+01
RMM:  14    -0.359967652083E+04   -0.15524E+00   -0.30853E-02  6322   0.677E-02    0.110E+01
RMM:  15    -0.360014923647E+04   -0.47272E+00   -0.22549E-01  7934   0.223E-01    0.835E+00
RMM:  16    -0.360019225778E+04   -0.43021E-01   -0.30035E-01  8155   0.252E-01    0.736E+00
RMM:  17    -0.360018787258E+04    0.43852E-02   -0.17768E-02  6994   0.910E-02    0.646E+00
RMM:  18    -0.360021091001E+04   -0.23037E-01   -0.38163E-02  7331   0.102E-01    0.672E+00
RMM:  19    -0.360029744258E+04   -0.86533E-01   -0.10054E-01  7956   0.164E-01    0.635E+00
RMM:  20    -0.360035816616E+04   -0.60724E-01   -0.77434E-02  7799   0.111E-01    0.652E+00
RMM:  21    -0.360038575920E+04   -0.27593E-01   -0.13205E-02  6903   0.665E-02    0.543E+00
RMM:  22    -0.360041286788E+04   -0.27109E-01   -0.14493E-02  6878   0.656E-02    0.413E+00
RMM:  23    -0.360043497878E+04   -0.22111E-01   -0.39543E-03  6126   0.476E-02    0.392E+00
RMM:  24    -0.360045209661E+04   -0.17118E-01   -0.68023E-03  6851   0.429E-02    0.328E+00
RMM:  25    -0.360046022034E+04   -0.81237E-02   -0.82666E-03  7218   0.492E-02    0.374E+00
RMM:  26    -0.360050977749E+04   -0.49557E-01   -0.46978E-03  6875   0.352E-02    0.100E+01
RMM:  27    -0.360052006065E+04   -0.10283E-01   -0.27202E-02  7788   0.134E-01    0.143E+01
RMM:  28    -0.360047677425E+04    0.43286E-01   -0.20367E-02  6978   0.111E-01    0.143E+01
RMM:  29    -0.360045628732E+04    0.20487E-01   -0.11370E-03  5767   0.264E-02    0.143E+01
RMM:  30    -0.360045592898E+04    0.35835E-03   -0.13015E-04  5161   0.814E-03    0.143E+01
RMM:  31    -0.360045485429E+04    0.10747E-02   -0.62572E-05  4785   0.417E-03    0.142E+01
RMM:  32    -0.360047287548E+04   -0.18021E-01   -0.67323E-03  7943   0.376E-02    0.120E+01
RMM:  33    -0.360039446266E+04    0.78413E-01   -0.44733E-02  8142   0.147E-01    0.124E+01
RMM:  34    -0.360029529231E+04    0.99170E-01   -0.73222E-03  7812   0.579E-02    0.131E+01
RMM:  35    -0.360017726997E+04    0.11802E+00   -0.45055E-03  7775   0.469E-02    0.122E+01
RMM:  36    -0.360017074720E+04    0.65228E-02   -0.77414E-04  6581   0.186E-02    0.995E+00
RMM:  37    -0.360023976675E+04   -0.69020E-01   -0.49283E-03  7612   0.561E-02    0.693E+00
RMM:  38    -0.360027439918E+04   -0.34632E-01   -0.11352E-02  8146   0.854E-02    0.510E+00
RMM:  39    -0.360032533062E+04   -0.50931E-01   -0.14024E-02  8095   0.920E-02    0.310E+00
RMM:  40    -0.360030812077E+04    0.17210E-01   -0.45695E-03  8134   0.464E-02    0.321E+00
RMM:  41    -0.360027142443E+04    0.36696E-01   -0.47773E-03  8372   0.310E-02    0.363E+00
RMM:  42    -0.360025474726E+04    0.16677E-01   -0.91688E-04  7479   0.154E-02    0.385E+00
RMM:  43    -0.360026595473E+04   -0.11207E-01   -0.50440E-04  6233   0.130E-02    0.383E+00
RMM:  44    -0.360016589400E+04    0.10006E+00   -0.15547E-02  8619   0.630E-02    0.469E+00
RMM:  45    -0.360009290712E+04    0.72987E-01   -0.84223E-03  8248   0.381E-02    0.512E+00
RMM:  46    -0.360003727684E+04    0.55630E-01   -0.47618E-03  7838   0.294E-02    0.545E+00
RMM:  47    -0.359989914329E+04    0.13813E+00   -0.55685E-02  8695   0.105E-01    0.779E+00
RMM:  48    -0.359989275983E+04    0.63835E-02   -0.20383E-02  8608   0.112E-01    0.594E+00
RMM:  49    -0.359991320241E+04   -0.20443E-01   -0.68965E-03  8061   0.762E-02    0.589E+00
RMM:  50    -0.359987815130E+04    0.35051E-01   -0.38247E-03  7509   0.366E-02    0.600E+00
RMM:  51    -0.359983051220E+04    0.47639E-01   -0.37645E-03  7273   0.246E-02    0.612E+00
RMM:  52    -0.359978060644E+04    0.49906E-01   -0.45349E-03  7645   0.286E-02    0.635E+00
RMM:  53    -0.359979334926E+04   -0.12743E-01   -0.27605E-04  5335   0.877E-03    0.630E+00
RMM:  54    -0.359978651164E+04    0.68376E-02   -0.86409E-05  4488   0.386E-03    0.632E+00
RMM:  55    -0.359986834567E+04   -0.81834E-01   -0.91977E-03  7160   0.314E-02    0.607E+00
RMM:  56    -0.359995037332E+04   -0.82028E-01   -0.74950E-03  7423   0.328E-02    0.573E+00
RMM:  57    -0.359963867408E+04    0.31170E+00   -0.96083E-02  8316   0.117E-01    0.704E+00
RMM:  58    -0.359967714215E+04   -0.38468E-01   -0.21829E-03  7279   0.312E-02    0.678E+00
RMM:  59    -0.359964045463E+04    0.36688E-01   -0.22396E-03  7036   0.182E-02    0.710E+00
RMM:  60    -0.359937201126E+04    0.26844E+00   -0.54054E-02  8038   0.790E-02    0.801E+00
RMM:  61    -0.359936784755E+04    0.41637E-02   -0.11874E-03  6989   0.261E-02    0.811E+00
RMM:  62    -0.359928381624E+04    0.84031E-01   -0.48982E-03  7560   0.298E-02    0.805E+00
RMM:  63    -0.359925013596E+04    0.33680E-01   -0.10392E-03  6729   0.194E-02    0.822E+00
RMM:  64    -0.359930410756E+04   -0.53972E-01   -0.19965E-03  6296   0.184E-02    0.821E+00
RMM:  65    -0.359943617298E+04   -0.13207E+00   -0.13554E-02  7426   0.418E-02    0.793E+00
RMM:  66    -0.359948190418E+04   -0.45731E-01   -0.28103E-03  6758   0.262E-02    0.817E+00
RMM:  67    -0.359946362548E+04    0.18279E-01   -0.12060E-03  7643   0.187E-02    0.910E+00
RMM:  68    -0.359945548188E+04    0.81436E-02   -0.10712E-03  6532   0.259E-02    0.938E+00
RMM:  69    -0.359941704432E+04    0.38438E-01   -0.21884E-03  7110   0.236E-02    0.889E+00
RMM:  70    -0.359938822754E+04    0.28817E-01   -0.26340E-03  7445   0.231E-02    0.819E+00
RMM:  71    -0.359940074894E+04   -0.12521E-01   -0.12686E-03  8021   0.276E-02    0.788E+00
RMM:  72    -0.359948594773E+04   -0.85199E-01   -0.34480E-03  8274   0.316E-02    0.714E+00
RMM:  73    -0.359958466580E+04   -0.98718E-01   -0.61322E-03  8231   0.403E-02    0.672E+00
RMM:  74    -0.359966137396E+04   -0.76708E-01   -0.33920E-03  8248   0.292E-02    0.647E+00
RMM:  75    -0.359971352394E+04   -0.52150E-01   -0.20056E-03  8220   0.213E-02    0.639E+00
RMM:  76    -0.359973155001E+04   -0.18026E-01   -0.61495E-04  7727   0.116E-02    0.646E+00
RMM:  77    -0.359993089337E+04   -0.19934E+00   -0.34000E-02  8615   0.640E-02    0.674E+00
RMM:  78    -0.359992914402E+04    0.17493E-02   -0.23631E-03  7504   0.355E-02    0.706E+00
RMM:  79    -0.359991135890E+04    0.17785E-01   -0.68926E-04  6332   0.211E-02    0.732E+00
RMM:  80    -0.359992107150E+04   -0.97126E-02   -0.93619E-04  7268   0.181E-02    0.748E+00
RMM:  81    -0.359993018530E+04   -0.91138E-02   -0.49199E-04  6191   0.123E-02    0.741E+00
RMM:  82    -0.360155558851E+04   -0.16254E+01   -0.97726E-01  8717   0.406E-01    0.107E+01
RMM:  83    -0.360074419953E+04    0.81139E+00   -0.10606E-01  8682   0.222E-01    0.133E+01
RMM:  84    -0.360029520143E+04    0.44900E+00   -0.65132E-02  8608   0.185E-01    0.145E+01
RMM:  85    -0.360026005009E+04    0.35151E-01   -0.52522E-03  8471   0.561E-02    0.144E+01
RMM:  86    -0.360026476558E+04   -0.47155E-02   -0.76383E-04  7616   0.181E-02    0.138E+01
RMM:  87    -0.360014043540E+04    0.12433E+00   -0.23882E-02  8712   0.766E-02    0.103E+01
RMM:  88    -0.360026377388E+04   -0.12334E+00   -0.33258E-02  8536   0.145E-01    0.542E+00
RMM:  89    -0.360040000948E+04   -0.13624E+00   -0.21379E-02  8338   0.114E-01    0.786E+00
RMM:  90    -0.360063589594E+04   -0.23589E+00   -0.10845E-02  8267   0.439E-02    0.131E+01
RMM:  91    -0.360054300409E+04    0.92892E-01   -0.20672E-02  8001   0.119E-01    0.136E+01
RMM:  92    -0.360035004726E+04    0.19296E+00   -0.12309E-01  8722   0.184E-01    0.137E+01
RMM:  93    -0.360032280526E+04    0.27242E-01   -0.39957E-03  8642   0.412E-02    0.138E+01
RMM:  94    -0.360042008850E+04   -0.97283E-01   -0.68205E-03  8703   0.430E-02    0.135E+01
RMM:  95    -0.360010788648E+04    0.31220E+00   -0.22567E-02  8673   0.741E-02    0.973E+00
RMM:  96    -0.360012769771E+04   -0.19811E-01   -0.40652E-02  8697   0.150E-01    0.773E+00
RMM:  97    -0.360019905970E+04   -0.71362E-01   -0.15437E-02  8711   0.898E-02    0.613E+00
RMM:  98    -0.360025412366E+04   -0.55064E-01   -0.79348E-03  8670   0.647E-02    0.580E+00
RMM:  99    -0.360032949867E+04   -0.75375E-01   -0.70545E-03  8674   0.468E-02    0.584E+00
RMM: 100    -0.360031315038E+04    0.16348E-01   -0.11433E-02  8712   0.640E-02    0.598E+00
RMM: 101    -0.360038652669E+04   -0.73376E-01   -0.45432E-03  8482   0.523E-02    0.112E+01
RMM: 102    -0.360024739666E+04    0.13913E+00   -0.24013E-02  8664   0.126E-01    0.983E+00
RMM: 103    -0.360021833421E+04    0.29062E-01   -0.12459E-02  8490   0.910E-02    0.797E+00
RMM: 104    -0.360028340038E+04   -0.65066E-01   -0.41733E-03  8087   0.456E-02    0.802E+00
RMM: 105    -0.360026464561E+04    0.18755E-01   -0.70267E-03  7879   0.695E-02    0.798E+00
RMM: 106    -0.360024315112E+04    0.21494E-01   -0.47767E-03  8526   0.560E-02    0.465E+00
RMM: 107    -0.360031909946E+04   -0.75948E-01   -0.12223E-02  8691   0.875E-02    0.423E+00
RMM: 108    -0.360034662329E+04   -0.27524E-01   -0.12698E-03  8173   0.324E-02    0.563E+00
RMM: 109    -0.360032706063E+04    0.19563E-01   -0.19870E-03  7310   0.359E-02    0.668E+00
RMM: 110    -0.360029464763E+04    0.32413E-01   -0.11458E-03  6845   0.281E-02    0.628E+00
RMM: 111    -0.360029168608E+04    0.29615E-02   -0.16656E-04  5918   0.737E-03    0.550E+00
RMM: 112    -0.360029176601E+04   -0.79923E-04   -0.63454E-04  7195   0.183E-02    0.425E+00
RMM: 113    -0.360030707702E+04   -0.15311E-01   -0.18800E-03  7555   0.359E-02    0.373E+00
RMM: 114    -0.360031461319E+04   -0.75362E-02   -0.86764E-04  6698   0.244E-02    0.359E+00
RMM: 115    -0.360030696568E+04    0.76475E-02   -0.28556E-04  6621   0.115E-02    0.378E+00
RMM: 116    -0.360027713687E+04    0.29829E-01   -0.94810E-04  7520   0.156E-02    0.401E+00
RMM: 117    -0.360025335690E+04    0.23780E-01   -0.73398E-04  7015   0.116E-02    0.418E+00
RMM: 118    -0.360022000880E+04    0.33348E-01   -0.11375E-03  7325   0.145E-02    0.466E+00
RMM: 119    -0.360015559671E+04    0.64412E-01   -0.30750E-03  7933   0.282E-02    0.523E+00
RMM: 120    -0.360010488725E+04    0.50709E-01   -0.16790E-03  7665   0.181E-02    0.553E+00
RMM: 121    -0.360003964696E+04    0.65240E-01   -0.41050E-03  7612   0.266E-02    0.585E+00
RMM: 122    -0.360009841635E+04   -0.58769E-01   -0.38729E-03  7876   0.331E-02    0.649E+00
RMM: 123    -0.360005185867E+04    0.46558E-01   -0.20911E-03  7568   0.370E-02    0.666E+00
RMM: 124    -0.360005223277E+04   -0.37410E-03   -0.13756E-04  5934   0.741E-03    0.614E+00
RMM: 125    -0.360004873050E+04    0.35023E-02   -0.85737E-04  7154   0.201E-02    0.540E+00
RMM: 126    -0.360006676644E+04   -0.18036E-01   -0.17824E-03  6961   0.342E-02    0.517E+00
RMM: 127    -0.360009448836E+04   -0.27722E-01   -0.15968E-03  7474   0.277E-02    0.501E+00
RMM: 128    -0.360011651696E+04   -0.22029E-01   -0.76026E-04  7386   0.166E-02    0.492E+00
RMM: 129    -0.360011755291E+04   -0.10360E-02   -0.53079E-05  5090   0.576E-03    0.492E+00
RMM: 130    -0.360010228710E+04    0.15266E-01   -0.29634E-04  7008   0.106E-02    0.502E+00
RMM: 131    -0.360009547113E+04    0.68160E-02   -0.14855E-04  6679   0.619E-03    0.507E+00
RMM: 132    -0.360026599678E+04   -0.17053E+00   -0.19250E-02  8351   0.753E-02    0.505E+00
RMM: 133    -0.360022552594E+04    0.40471E-01   -0.85100E-03  8134   0.776E-02    0.583E+00
RMM: 134    -0.360020986819E+04    0.15658E-01   -0.98270E-04  6733   0.276E-02    0.615E+00
RMM: 135    -0.360020234496E+04    0.75232E-02   -0.22998E-04  6066   0.129E-02    0.646E+00
RMM: 136    -0.360021115949E+04   -0.88145E-02   -0.19000E-04  7041   0.980E-03    0.658E+00
RMM: 137    -0.360034952912E+04   -0.13837E+00   -0.23334E-02  8569   0.711E-02    0.532E+00
RMM: 138    -0.360040810354E+04   -0.58574E-01   -0.93040E-03  8052   0.760E-02    0.104E+01
RMM: 139    -0.360038076689E+04    0.27337E-01   -0.15405E-02  8208   0.100E-01    0.140E+01
RMM: 140    -0.360015959988E+04    0.22117E+00   -0.14679E-02  8176   0.935E-02    0.133E+01
RMM: 141    -0.360006071664E+04    0.98883E-01   -0.33064E-03  8278   0.396E-02    0.110E+01
RMM: 142    -0.360036550175E+04   -0.30479E+00   -0.15663E-02  8589   0.749E-02    0.124E+01
RMM: 143    -0.360036366111E+04    0.18406E-02   -0.89663E-03  8039   0.816E-02    0.135E+01
RMM: 144    -0.360027161649E+04    0.92045E-01   -0.36813E-03  7802   0.452E-02    0.137E+01
RMM: 145    -0.360025900384E+04    0.12613E-01   -0.24385E-04  5988   0.120E-02    0.138E+01
RMM: 146    -0.360022099756E+04    0.38006E-01   -0.54740E-04  6712   0.145E-02    0.142E+01
RMM: 147    -0.360100194638E+04   -0.78095E+00   -0.73229E-02  8700   0.114E-01    0.112E+01
RMM: 148    -0.360055057991E+04    0.45137E+00   -0.22276E-02  8496   0.727E-02    0.117E+01
RMM: 149    -0.360052488528E+04    0.25695E-01   -0.12163E-02  8343   0.799E-02    0.118E+01
RMM: 150    -0.360046925715E+04    0.55628E-01   -0.20546E-03  7555   0.293E-02    0.119E+01
RMM: 151    -0.360038448039E+04    0.84777E-01   -0.18766E-03  7609   0.195E-02    0.126E+01
RMM: 152    -0.360056318863E+04   -0.17871E+00   -0.79682E-03  8441   0.494E-02    0.117E+01
RMM: 153    -0.360057411529E+04   -0.10927E-01   -0.11438E-03  7400   0.246E-02    0.117E+01
RMM: 154    -0.360047771497E+04    0.96400E-01   -0.23532E-03  7806   0.270E-02    0.120E+01
RMM: 155    -0.360047841357E+04   -0.69860E-03   -0.12597E-03  7634   0.196E-02    0.121E+01
RMM: 156    -0.360048664802E+04   -0.82344E-02   -0.11406E-03  7472   0.255E-02    0.121E+01
RMM: 157    -0.360027378197E+04    0.21287E+00   -0.53211E-03  7965   0.321E-02    0.125E+01
RMM: 158    -0.360024812701E+04    0.25655E-01   -0.32876E-04  6357   0.736E-03    0.121E+01
RMM: 159    -0.360028779569E+04   -0.39669E-01   -0.29768E-04  6015   0.125E-02    0.123E+01
RMM: 160    -0.360036480980E+04   -0.77014E-01   -0.10140E-03  7978   0.170E-02    0.125E+01
RMM: 161    -0.360020365655E+04    0.16115E+00   -0.68958E-03  8522   0.456E-02    0.113E+01
RMM: 162    -0.360004044048E+04    0.16322E+00   -0.15563E-02  8424   0.816E-02    0.408E+00
RMM: 163    -0.360018186518E+04   -0.14142E+00   -0.30278E-02  8477   0.130E-01    0.426E+00
RMM: 164    -0.360015908764E+04    0.22778E-01   -0.44545E-03  8004   0.420E-02    0.458E+00
RMM: 165    -0.360006347723E+04    0.95610E-01   -0.58868E-03  8108   0.299E-02    0.531E+00
RMM: 166    -0.360001011023E+04    0.53367E-01   -0.28554E-03  7594   0.221E-02    0.565E+00
RMM: 167    -0.360001325417E+04   -0.31439E-02   -0.25323E-04  5923   0.968E-03    0.563E+00
RMM: 168    -0.360000400220E+04    0.92520E-02   -0.21123E-04  4841   0.604E-03    0.568E+00
RMM: 169    -0.359998310561E+04    0.20897E-01   -0.56827E-04  6110   0.995E-03    0.579E+00
RMM: 170    -0.360005425536E+04   -0.71150E-01   -0.75790E-03  7270   0.374E-02    0.538E+00
RMM: 171    -0.360014390575E+04   -0.89650E-01   -0.62905E-03  7934   0.388E-02    0.471E+00
RMM: 172    -0.360029517640E+04   -0.15127E+00   -0.25309E-02  8516   0.800E-02    0.351E+00
RMM: 173    -0.360031324069E+04   -0.18064E-01   -0.21613E-03  7561   0.320E-02    0.341E+00
RMM: 174    -0.360028882468E+04    0.24416E-01   -0.11838E-03  6792   0.259E-02    0.360E+00
RMM: 175    -0.360029558397E+04   -0.67593E-02   -0.68076E-05  5049   0.531E-03    0.355E+00
RMM: 176    -0.360031945386E+04   -0.23870E-01   -0.17010E-03  7651   0.252E-02    0.343E+00
RMM: 177    -0.360035633025E+04   -0.36876E-01   -0.25228E-03  7996   0.259E-02    0.317E+00
RMM: 178    -0.360037573962E+04   -0.19409E-01   -0.11655E-03  7437   0.154E-02    0.361E+00
RMM: 179    -0.360038264078E+04   -0.69012E-02   -0.49055E-04  6683   0.129E-02    0.437E+00
RMM: 180    -0.360038471849E+04   -0.20777E-02   -0.46637E-04  6442   0.162E-02    0.519E+00
RMM: 181    -0.360037400908E+04    0.10709E-01   -0.44055E-04  6073   0.188E-02    0.494E+00
RMM: 182    -0.360038152612E+04   -0.75170E-02   -0.54679E-04  7578   0.125E-02    0.563E+00
RMM: 183    -0.360037872171E+04    0.28044E-02   -0.29041E-04  5912   0.142E-02    0.611E+00
RMM: 184    -0.360036329574E+04    0.15426E-01   -0.22904E-04  5935   0.133E-02    0.525E+00
RMM: 185    -0.360036609260E+04   -0.27969E-02   -0.39133E-04  6028   0.152E-02    0.475E+00
RMM: 186    -0.360036331678E+04    0.27758E-02   -0.67384E-04  7355   0.164E-02    0.396E+00
RMM: 187    -0.360036202082E+04    0.12960E-02   -0.96760E-04  7584   0.202E-02    0.350E+00
RMM: 188    -0.360035973402E+04    0.22868E-02   -0.43241E-04  6372   0.168E-02    0.342E+00
RMM: 189    -0.360036444925E+04   -0.47152E-02   -0.26335E-04  5808   0.947E-03    0.348E+00
RMM: 190    -0.360036165536E+04    0.27939E-02   -0.71557E-05  4520   0.513E-03    0.351E+00
RMM: 191    -0.360035713360E+04    0.45218E-02   -0.99415E-05  4720   0.513E-03    0.359E+00
RMM: 192    -0.360035896513E+04   -0.18315E-02   -0.25070E-05  4560   0.248E-03    0.362E+00
RMM: 193    -0.360035694944E+04    0.20157E-02   -0.47572E-05  4605   0.382E-03    0.368E+00
RMM: 194    -0.360035580470E+04    0.11447E-02   -0.14466E-04  5756   0.650E-03    0.378E+00
RMM: 195    -0.360036063888E+04   -0.48342E-02   -0.18892E-04  6042   0.669E-03    0.389E+00
RMM: 196    -0.360036102664E+04   -0.38776E-03   -0.40103E-05  5024   0.498E-03    0.393E+00
RMM: 197    -0.360037253224E+04   -0.11506E-01   -0.14785E-04  5791   0.673E-03    0.416E+00
RMM: 198    -0.360036087487E+04    0.11657E-01   -0.15640E-04  5755   0.998E-03    0.390E+00
RMM: 199    -0.360036250482E+04   -0.16299E-02   -0.32810E-05  4184   0.464E-03    0.389E+00
RMM: 200    -0.360036150786E+04    0.99696E-03   -0.64793E-06  3524   0.163E-03    0.389E+00
RMM: 201    -0.360036307791E+04   -0.15701E-02   -0.38970E-05  4786   0.292E-03    0.400E+00
RMM: 202    -0.360036188538E+04    0.11925E-02   -0.14689E-04  5837   0.671E-03    0.415E+00
RMM: 203    -0.360036304305E+04   -0.11577E-02   -0.24872E-05  4206   0.427E-03    0.415E+00
RMM: 204    -0.360036282602E+04    0.21703E-03   -0.13113E-06  3315   0.104E-03    0.415E+00
RMM: 205    -0.360036217874E+04    0.64729E-03   -0.55112E-06  3449   0.165E-03    0.413E+00
RMM: 206    -0.360036149048E+04    0.68826E-03   -0.56552E-06  3607   0.116E-03    0.408E+00
[...]
RMM:   2    -0.360269761734E+04   -0.45938E-04   -0.49926E-04  5132   0.201E-02    0.129E-02
RMM:   3    -0.360269762473E+04   -0.73839E-05   -0.82305E-05  5202   0.761E-03    0.106E-02
RMM:   4    -0.360269762510E+04   -0.36888E-06   -0.13253E-05  4920   0.306E-03    0.803E-03
RMM:   5    -0.360269762447E+04    0.63072E-06   -0.38473E-06  4006   0.153E-03
 augmentation electrons   1798.79967510829     
 soft         electrons  0.000000000000000E+000
 total        electrons   1798.79967510829     
 augmentation electrons -6.781895440300070E-002
 soft         electrons  0.000000000000000E+000
 total        electrons -6.781895440300070E-002
 augmentation electrons   2018.78234213959     
 soft         electrons  0.000000000000000E+000
 total        electrons   2018.78234213959     
 augmentation electrons   1961.62467560759     
 soft         electrons  0.000000000000000E+000
 total        electrons   1961.62467560759     
 augmentation electrons   47.3147251944933     
 soft         electrons   1751.48492412379     
 total        electrons   1798.79964931828     
 augmentation electrons   32.9818018940451     
 soft         electrons   1751.48492412379     
 total        electrons   52.9321732480524     
 translations:           0           1           0
 235 F= -.36401844E+04 E0= -.36401844E+04  d E =-.605843E-03  mag=    53.0000
 curvature:  -0.99 expect dE=-0.144E-02 dE for cont linesearch -0.318E-04
 ZBRENT: increasing intervall
 opt :   0.5175  next Energy= -3640.184451 (dE=-0.644E-03)
 bond charge predicted
       N       E                     dE             d eps       ncg     rms          rms(c)
RMM:   1    -0.360269744399E+04    0.18111E-03   -0.30409E-02  5120   0.144E-01    0.603E-02
RMM:   2    -0.360269762325E+04   -0.17926E-03   -0.19684E-03  5135   0.396E-02    0.258E-02
RMM:   3    -0.360269765194E+04   -0.28686E-04   -0.31344E-04  5207   0.148E-02    0.207E-02
RMM:   4    -0.360269765373E+04   -0.17884E-05   -0.51027E-05  5389   0.593E-03    0.156E-02
RMM:   5    -0.360269765152E+04    0.22025E-05   -0.13147E-05  4829   0.293E-03    0.686E-03
RMM:   6    -0.360269765191E+04   -0.38896E-06   -0.35624E-06  3946   0.141E-03
 augmentation electrons   1798.79953563196     
 soft         electrons  0.000000000000000E+000
 total        electrons   1798.79953563196     
 augmentation electrons -6.797230534630094E-002
 soft         electrons  0.000000000000000E+000
 total        electrons -6.797230534630094E-002
 augmentation electrons   2018.27016628222     
 soft         electrons  0.000000000000000E+000
 total        electrons   2018.27016628222     
 augmentation electrons   1961.11249975022     
 soft         electrons  0.000000000000000E+000
 total        electrons   1961.11249975022     
 augmentation electrons   47.3144867372534     
 soft         electrons   1751.48502308670     
 total        electrons   1798.79950982395     
 augmentation electrons   32.9815302729371     
 soft         electrons   1751.48502308670     
 total        electrons   52.9320198886549     
 translations:           0           1           0
 236 F= -.36401845E+04 E0= -.36401845E+04  d E =-.701037E-03  mag=    53.0000
 curvature:  -1.21 expect dE=-0.312E-02 dE for cont linesearch -0.348E-05
 trial: gam= 1.04579 g(F)=  0.259E-02 g(S)=  0.000E+00 ort =-0.218E-03 (trialstep = 0.239E+00)
 search vector abs. value=  0.201E-01
 bond charge predicted
       N       E                     dE             d eps       ncg     rms          rms(c)
RMM:   1    -0.360269752091E+04    0.13061E-03   -0.61416E-02  5120   0.203E-01    0.859E-02
RMM:   2    -0.360269788808E+04   -0.36717E-03   -0.39507E-03  5131   0.555E-02    0.371E-02
RMM:   3    -0.360269794339E+04   -0.55302E-04   -0.60946E-04  5197   0.207E-02    0.293E-02
RMM:   4    -0.360269794608E+04   -0.26982E-05   -0.99344E-05  5397   0.832E-03    0.217E-02
RMM:   5    -0.360269794188E+04    0.42082E-05   -0.26305E-05  5047   0.413E-03    0.959E-03
RMM:   6    -0.360269794259E+04   -0.71707E-06   -0.67989E-06  4371   0.197E-03
 augmentation electrons   1798.79957733244     
 soft         electrons  0.000000000000000E+000
 total        electrons   1798.79957733244     
 augmentation electrons -6.810097988238710E-002
 soft         electrons  0.000000000000000E+000
 total        electrons -6.810097988238710E-002
 augmentation electrons   2017.72014718676     
 soft         electrons  0.000000000000000E+000
 total        electrons   2017.72014718676     
 augmentation electrons   1960.56248065476     
 soft         electrons  0.000000000000000E+000
 total        electrons   1960.56248065476     
 augmentation electrons   47.3145502187804     
 soft         electrons   1751.48500127615     
 total        electrons   1798.79955149493     
 augmentation electrons   32.9813104117823     
 soft         electrons   1751.48500127615     
 total        electrons   52.9318911907425     
 translations:           0           1           0
 237 F= -.36401849E+04 E0= -.36401849E+04  d E =-.357328E-03  mag=    53.0000
 trial-energy change:   -0.000357  1 .order   -0.000413   -0.000566   -0.000261
 step:   0.4435(harm=  0.4435)  dis= 0.00270  next Energy= -3640.185031 (dE=-0.524E-03)
 bond charge predicted
       N       E                     dE             d eps       ncg     rms          rms(c)
RMM:   1    -0.360269765727E+04    0.28461E-03   -0.44867E-02  5120   0.173E-01    0.733E-02
RMM:   2    -0.360269792610E+04   -0.26883E-03   -0.28899E-03  5132   0.475E-02    0.318E-02
RMM:   3    -0.360269796651E+04   -0.40415E-04   -0.44623E-04  5198   0.177E-02    0.251E-02
RMM:   4    -0.360269796861E+04   -0.20953E-05   -0.74304E-05  5404   0.716E-03    0.186E-02
RMM:   5    -0.360269796552E+04    0.30930E-05   -0.19654E-05  4962   0.355E-03    0.815E-03
RMM:   6    -0.360269796608E+04   -0.55961E-06   -0.50806E-06  4200   0.170E-03
 augmentation electrons   1798.79968047069     
 soft         electrons  0.000000000000000E+000
 total        electrons   1798.79968047069     
 augmentation electrons -6.817381815107200E-002
 soft         electrons  0.000000000000000E+000
 total        electrons -6.817381815107200E-002
 augmentation electrons   2017.21606866191     
 soft         electrons  0.000000000000000E+000
 total        electrons   2017.21606866191     
 augmentation electrons   1960.05840212991     
 soft         electrons  0.000000000000000E+000
 total        electrons   1960.05840212991     
 augmentation electrons   47.3146714999211     
 soft         electrons   1751.48498310849     
 total        electrons   1798.79965460841     
 augmentation electrons   32.9811626009783     
 soft         electrons   1751.48498310849     
 total        electrons   52.9318183338189     
 translations:           0           1           0
 238 F= -.36401849E+04 E0= -.36401849E+04  d E =-.436168E-03  mag=    53.0000
 curvature:  -1.88 expect dE=-0.446E-02 dE for cont linesearch -0.252E-05
 trial: gam= 0.64043 g(F)=  0.237E-02 g(S)=  0.000E+00 ort = 0.164E-03 (trialstep = 0.280E+00)
 search vector abs. value=  0.108E-01
 bond charge predicted
       N       E                     dE             d eps       ncg     rms          rms(c)
RMM:   1    -0.360269804640E+04   -0.80883E-04   -0.48990E-02  5120   0.184E-01    0.835E-02
RMM:   2    -0.360269835523E+04   -0.30883E-03   -0.32230E-03  5138   0.497E-02    0.362E-02
RMM:   3    -0.360269839473E+04   -0.39501E-04   -0.45244E-04  5202   0.183E-02    0.274E-02
RMM:   4    -0.360269839605E+04   -0.13209E-05   -0.73856E-05  5443   0.731E-03    0.200E-02
RMM:   5    -0.360269839287E+04    0.31829E-05   -0.20582E-05  5023   0.368E-03    0.882E-03
RMM:   6    -0.360269839338E+04   -0.51208E-06   -0.49163E-06  4185   0.173E-03
 augmentation electrons   1798.80030016938     
 soft         electrons  0.000000000000000E+000
 total        electrons   1798.80030016938     
 augmentation electrons -6.817828764052541E-002
 soft         electrons  0.000000000000000E+000
 total        electrons -6.817828764052541E-002
 augmentation electrons   2017.27182550688     
 soft         electrons  0.000000000000000E+000
 total        electrons   2017.27182550688     
 augmentation electrons   1960.11415897488     
 soft         electrons  0.000000000000000E+000
 total        electrons   1960.11415897488     
 augmentation electrons   47.3154738134823     
 soft         electrons   1751.48480051890     
 total        electrons   1798.80027433238     
 augmentation electrons   32.9811689741401     
 soft         electrons   1751.48480051890     
 total        electrons   52.9318138440607     
 translations:           0           1           0
 239 F= -.36401853E+04 E0= -.36401853E+04  d E =-.378870E-03  mag=    53.0000
 trial-energy change:   -0.000379  1 .order   -0.000486   -0.000692   -0.000281
 step:   0.4713(harm=  0.4713)  dis= 0.00200  next Energy= -3640.185526 (dE=-0.582E-03)
 bond charge predicted
       N       E                     dE             d eps       ncg     rms          rms(c)
RMM:   1    -0.360269828221E+04    0.11066E-03   -0.22889E-02  5120   0.126E-01    0.570E-02
RMM:   2    -0.360269842584E+04   -0.14363E-03   -0.14989E-03  5135   0.340E-02    0.244E-02
RMM:   3    -0.360269844513E+04   -0.19291E-04   -0.21954E-04  5204   0.126E-02    0.189E-02
RMM:   4    -0.360269844590E+04   -0.76921E-06   -0.35013E-05  5379   0.503E-03    0.140E-02
RMM:   5    -0.360269844433E+04    0.15636E-05   -0.10085E-05  4721   0.255E-03    0.604E-03
RMM:   6    -0.360269844460E+04   -0.27068E-06   -0.24830E-06  3765   0.121E-03
 augmentation electrons   1798.80074456269     
 soft         electrons  0.000000000000000E+000
 total        electrons   1798.80074456269     
 augmentation electrons -6.815406154645023E-002
 soft         electrons  0.000000000000000E+000
 total        electrons -6.815406154645023E-002
 augmentation electrons   2017.28154232883     
 soft         electrons  0.000000000000000E+000
 total        electrons   2017.28154232883     
 augmentation electrons   1960.12387579683     
 soft         electrons  0.000000000000000E+000
 total        electrons   1960.12387579683     
 augmentation electrons   47.3160427469714     
 soft         electrons   1751.48467599532     
 total        electrons   1798.80071874229     
 augmentation electrons   32.9812022221484     
 soft         electrons   1751.48467599532     
 total        electrons   52.9318380567770     
 translations:           0           1           0
 240 F= -.36401853E+04 E0= -.36401853E+04  d E =-.395812E-03  mag=    53.0000
 curvature:  -1.03 expect dE=-0.215E-02 dE for cont linesearch -0.455E-08
 trial: gam= 0.92483 g(F)=  0.208E-02 g(S)=  0.000E+00 ort =-0.690E-05 (trialstep = 0.304E+00)
 search vector abs. value=  0.113E-01
 bond charge predicted
       N       E                     dE             d eps       ncg     rms          rms(c)
RMM:   1    -0.360269835579E+04    0.88548E-04   -0.59471E-02  5120   0.205E-01    0.109E-01
RMM:   2    -0.360269882361E+04   -0.46782E-03   -0.46223E-03  5139   0.564E-02    0.445E-02
RMM:   3    -0.360269887666E+04   -0.53050E-04   -0.59901E-04  5218   0.208E-02    0.320E-02
RMM:   4    -0.360269887930E+04   -0.26431E-05   -0.96282E-05  5523   0.829E-03    0.246E-02
RMM:   5    -0.360269887434E+04    0.49646E-05   -0.24565E-05  5071   0.405E-03    0.118E-02
RMM:   6    -0.360269887487E+04   -0.53117E-06   -0.74971E-06  4398   0.206E-03
 augmentation electrons   1798.80191673019     
 soft         electrons  0.000000000000000E+000
 total        electrons   1798.80191673019     
 augmentation electrons -6.807965001934524E-002
 soft         electrons  0.000000000000000E+000
 total        electrons -6.807965001934524E-002
 augmentation electrons   2017.65231183064     
 soft         electrons  0.000000000000000E+000
 total        electrons   2017.65231183064     
 augmentation electrons   1960.49464529864     
 soft         electrons  0.000000000000000E+000
 total        electrons   1960.49464529864     
 augmentation electrons   47.3174665228316     
 soft         electrons   1751.48442440182     
 total        electrons   1798.80189092466     
 augmentation electrons   32.9813666730420     
 soft         electrons   1751.48442440182     
 total        electrons   52.9319124520907     
 translations:           0           1           0
 241 F= -.36401857E+04 E0= -.36401857E+04  d E =-.379152E-03  mag=    53.0000
 trial-energy change:   -0.000379  1 .order   -0.000436   -0.000631   -0.000240
 step:   0.4912(harm=  0.4912)  dis= 0.00215  next Energy= -3640.185849 (dE=-0.510E-03)
 bond charge predicted
       N       E                     dE             d eps       ncg     rms          rms(c)
RMM:   1    -0.360269874963E+04    0.12470E-03   -0.22603E-02  5120   0.127E-01    0.669E-02
RMM:   2    -0.360269892759E+04   -0.17795E-03   -0.17531E-03  5137   0.348E-02    0.273E-02
RMM:   3    -0.360269894798E+04   -0.20397E-04   -0.23083E-04  5221   0.129E-02    0.198E-02
RMM:   4    -0.360269894895E+04   -0.97112E-06   -0.37007E-05  5442   0.517E-03    0.152E-02
RMM:   5    -0.360269894698E+04    0.19703E-05   -0.10144E-05  4701   0.258E-03    0.693E-03
RMM:   6    -0.360269894722E+04   -0.23696E-06   -0.29668E-06  3861   0.129E-03
 augmentation electrons   1798.80262935789     
 soft         electrons  0.000000000000000E+000
 total        electrons   1798.80262935789     
 augmentation electrons -6.805117422512186E-002
 soft         electrons  0.000000000000000E+000
 total        electrons -6.805117422512186E-002
 augmentation electrons   2017.74439964343     
 soft         electrons  0.000000000000000E+000
 total        electrons   2017.74439964343     
 augmentation electrons   1960.58673311143     
 soft         electrons  0.000000000000000E+000
 total        electrons   1960.58673311143     
 augmentation electrons   47.3183292606334     
 soft         electrons   1751.48427430119     
 total        electrons   1798.80260356182     
 augmentation electrons   32.9814575959367     
 soft         electrons   1751.48427430119     
 total        electrons   52.9319409187232     
 translations:           0           1           0
 242 F= -.36401858E+04 E0= -.36401858E+04  d E =-.416858E-03  mag=    53.0000
 curvature:  -1.34 expect dE=-0.290E-02 dE for cont linesearch -0.824E-07
 trial: gam= 0.95347 g(F)=  0.216E-02 g(S)=  0.000E+00 ort =-0.264E-04 (trialstep = 0.312E+00)
 search vector abs. value=  0.124E-01
 bond charge predicted
       N       E                     dE             d eps       ncg     rms          rms(c)
RMM:   1    -0.360269873909E+04    0.20790E-03   -0.69501E-02  5120   0.222E-01    0.128E-01
RMM:   2    -0.360269935707E+04   -0.61798E-03   -0.59272E-03  5146   0.612E-02    0.519E-02
RMM:   3    -0.360269941804E+04   -0.60969E-04   -0.69904E-04  5227   0.224E-02    0.362E-02
RMM:   4    -0.360269942082E+04   -0.27833E-05   -0.11188E-04  5514   0.891E-03    0.281E-02
RMM:   5    -0.360269941402E+04    0.68012E-05   -0.29610E-05  5106   0.444E-03    0.130E-02
RMM:   6    -0.360269941457E+04   -0.55079E-06   -0.94311E-06  4536   0.230E-03
 augmentation electrons   1798.80405378433     
 soft         electrons  0.000000000000000E+000
 total        electrons   1798.80405378433     
 augmentation electrons -6.804124266002957E-002
 soft         electrons  0.000000000000000E+000
 total        electrons -6.804124266002957E-002
 augmentation electrons   2018.09296223378     
 soft         electrons  0.000000000000000E+000
 total        electrons   2018.09296223378     
 augmentation electrons   1960.93529570178     
 soft         electrons  0.000000000000000E+000
 total        electrons   1960.93529570178     
 augmentation electrons   47.3199168544612     
 soft         electrons   1751.48411114313     
 total        electrons   1798.80402799759     
 augmentation electrons   32.9815255446985     
 soft         electrons   1751.48411114313     
 total        electrons   52.9319508461529     
 translations:           0           1           0
 243 F= -.36401862E+04 E0= -.36401862E+04  d E =-.472573E-03  mag=    53.0000
 trial-energy change:   -0.000473  1 .order   -0.000442   -0.000666   -0.000217
 step:   0.4096(harm=  0.4625)  dis= 0.00188  next Energy= -3640.186264 (dE=-0.508E-03)
 bond charge predicted
       N       E                     dE             d eps       ncg     rms          rms(c)
RMM:   1    -0.360269940092E+04    0.13098E-04   -0.69460E-03  5120   0.700E-02    0.402E-02
RMM:   2    -0.360269946230E+04   -0.61381E-04   -0.58533E-04  5140   0.195E-02    0.160E-02
RMM:   3    -0.360269946899E+04   -0.66855E-05   -0.76264E-05  5231   0.727E-03    0.116E-02
RMM:   4    -0.360269946928E+04   -0.29379E-06   -0.11699E-05  4956   0.289E-03    0.917E-03
RMM:   5    -0.360269946848E+04    0.80309E-06   -0.33929E-06  3964   0.145E-03
 augmentation electrons   1798.80450193771     
 soft         electrons  0.000000000000000E+000
 total        electrons   1798.80450193771     
 augmentation electrons -6.800501949600816E-002
 soft         electrons  0.000000000000000E+000
 total        electrons -6.800501949600816E-002
 augmentation electrons   2018.06519443553     
 soft         electrons  0.000000000000000E+000
 total        electrons   2018.06519443553     
 augmentation electrons   1960.90752790353     
 soft         electrons  0.000000000000000E+000
 total        electrons   1960.90752790353     
 augmentation electrons   47.3204238638551     
 soft         electrons   1751.48405229137     
 total        electrons   1798.80447615522     
 augmentation electrons   32.9815864172598     
 soft         electrons   1751.48405229137     
 total        electrons   52.9319870686658     
 translations:           0           1           0
 244 F= -.36401863E+04 E0= -.36401863E+04  d E =-.523062E-03  mag=    53.0000
 curvature:  -1.18 expect dE=-0.197E-02 dE for cont linesearch -0.701E-05
 trial: gam= 0.60449 g(F)=  0.167E-02 g(S)=  0.000E+00 ort = 0.272E-03 (trialstep = 0.331E+00)
 search vector abs. value=  0.653E-02
 bond charge predicted
       N       E                     dE             d eps       ncg     rms          rms(c)
RMM:   1    -0.360269948326E+04   -0.13981E-04   -0.43166E-02  5120   0.179E-01    0.100E-01
RMM:   2    -0.360269985531E+04   -0.37205E-03   -0.35943E-03  5141   0.485E-02    0.406E-02
RMM:   3    -0.360269989174E+04   -0.36426E-04   -0.42150E-04  5237   0.177E-02    0.285E-02
RMM:   4    -0.360269989324E+04   -0.14992E-05   -0.65080E-05  5491   0.697E-03    0.221E-02
RMM:   5    -0.360269988925E+04    0.39859E-05   -0.18479E-05  5086   0.357E-03    0.970E-03
RMM:   6    -0.360269988967E+04   -0.41314E-06   -0.52954E-06  4250   0.178E-03
 augmentation electrons   1798.80555202878     
 soft         electrons  0.000000000000000E+000
 total        electrons   1798.80555202878     
 augmentation electrons -6.797097226212133E-002
 soft         electrons  0.000000000000000E+000
 total        electrons -6.797097226212133E-002
 augmentation electrons   2018.16148764646     
 soft         electrons  0.000000000000000E+000
 total        electrons   2018.16148764646     
 augmentation electrons   1961.00382111446     
 soft         electrons  0.000000000000000E+000
 total        electrons   1961.00382111446     
 augmentation electrons   47.3213947413295     
 soft         electrons   1751.48413159545     
 total        electrons   1798.80552633678     
 augmentation electrons   32.9816057588386     
 soft         electrons   1751.48413159545     
 total        electrons   52.9320211298291     
 translations:           0           1           0
 245 F= -.36401867E+04 E0= -.36401867E+04  d E =-.421822E-03  mag=    53.0000
 trial-energy change:   -0.000422  1 .order   -0.000388   -0.000608   -0.000167
 step:   0.4111(harm=  0.4569)  dis= 0.00129  next Energy= -3640.186722 (dE=-0.442E-03)
 reached required accuracy - stopping structural energy minimisation
 writing wavefunctions
