 ----------------------------------------------------
    OOO  PPPP  EEEEE N   N M   M PPPP
   O   O P   P E     NN  N MM MM P   P
   O   O PPPP  EEEEE N N N M M M PPPP   -- VERSION
   O   O P     E     N  NN M   M P
    OOO  P     EEEEE N   N M   M P
 ----------------------------------------------------
 running  512 mpi-ranks, with    1 threads/rank
 distrk:  each k-point on  512 cores,    1 groups
 distr:  one band on    4 cores,  128 groups
 vasp.6.3.2 27Jun22 (build Nov 12 2024 19:13:04) complex                        
  
 POSCAR found type information on POSCAR Mn
 POSCAR found :  1 types and      58 ions
 scaLAPACK will be used
 LDA part: xc-table for Pade appr. of Perdew
 POSCAR, INCAR and KPOINTS ok, starting setup
 FFT: planning ... GRIDC
 FFT: planning ... GRID_SOFT
 FFT: planning ... GRID
 WAVECAR not read
 entering main loop
       N       E                     dE             d eps       ncg     rms          rms(c)
RMM:   1    -0.198297749054E+03   -0.19830E+03   -0.45068E+05   512   0.187E+03
RMM:   2    -0.668383712431E+03   -0.47009E+03   -0.78670E+04   512   0.474E+02
RMM:   3    -0.261994777136E+03    0.40639E+03   -0.77658E+03   512   0.203E+02
RMM:   4    -0.541399617551E+03   -0.27940E+03   -0.17986E+03   512   0.992E+01
RMM:   5    -0.600891103454E+03   -0.59491E+02   -0.49937E+02   512   0.505E+01
RMM:   6    -0.615052753360E+03   -0.14162E+02   -0.13315E+02   512   0.262E+01
RMM:   7    -0.619444507676E+03   -0.43918E+01   -0.43329E+01   512   0.143E+01
RMM:   8    -0.620834498004E+03   -0.13900E+01   -0.14520E+01   512   0.821E+00
RMM:   9    -0.621233015700E+03   -0.39852E+00   -0.46255E+00  1298   0.461E+00
RMM:  10    -0.621424768959E+03   -0.19175E+00   -0.18270E+00  1213   0.122E+00
RMM:  11    -0.621458733795E+03   -0.33965E-01   -0.27622E-01  1150   0.517E-01
RMM:  12    -0.621462414425E+03   -0.36806E-02   -0.29681E-02  1251   0.168E-01    0.102E+02
RMM:  13    -0.703933283587E+03   -0.82471E+02   -0.10977E+03  1784   0.602E+01    0.161E+02
RMM:  14    -0.592612056770E+03    0.11132E+03   -0.20535E+02  1708   0.230E+01    0.110E+02
RMM:  15    -0.543980914803E+03    0.48631E+02   -0.11210E+02  1802   0.192E+01    0.667E+01
RMM:  16    -0.541804594802E+03    0.21763E+01   -0.28968E+01  1637   0.854E+00    0.661E+01
RMM:  17    -0.520536211945E+03    0.21268E+02   -0.15034E+01  1620   0.656E+00    0.168E+01
RMM:  18    -0.520698254539E+03   -0.16204E+00   -0.54387E-01  1201   0.125E+00    0.192E+01
RMM:  19    -0.520093089664E+03    0.60516E+00   -0.30644E-01  1050   0.991E-01    0.152E+01
RMM:  20    -0.520204968199E+03   -0.11188E+00   -0.19958E-01  1031   0.772E-01    0.158E+01
RMM:  21    -0.519734142657E+03    0.47083E+00   -0.96405E-01  1433   0.167E+00    0.105E+01
RMM:  22    -0.519472183587E+03    0.26196E+00   -0.23902E-01  1090   0.862E-01    0.597E+00
RMM:  23    -0.519676035278E+03   -0.20385E+00   -0.20030E-01  1078   0.778E-01    0.891E+00
RMM:  24    -0.519447775092E+03    0.22826E+00   -0.12289E-01  1039   0.650E-01    0.462E+00
RMM:  25    -0.519410299700E+03    0.37475E-01   -0.41062E-02  1024   0.367E-01    0.342E+00
RMM:  26    -0.519428568095E+03   -0.18268E-01   -0.41623E-02  1029   0.371E-01    0.393E+00
RMM:  27    -0.519373121208E+03    0.55447E-01   -0.26385E-02  1024   0.323E-01    0.162E+00
RMM:  28    -0.519367331753E+03    0.57895E-02   -0.44908E-03  1024   0.120E-01    0.107E+00
RMM:  29    -0.519368566785E+03   -0.12350E-02   -0.51070E-03  1024   0.131E-01    0.123E+00
RMM:  30    -0.519363711496E+03    0.48553E-02   -0.41434E-03  1028   0.121E-01    0.587E-01
RMM:  31    -0.519363174673E+03    0.53682E-03   -0.89842E-04  1024   0.534E-02    0.437E-01
RMM:  32    -0.519363208881E+03   -0.34208E-04   -0.12727E-03  1057   0.652E-02    0.430E-01
RMM:  33    -0.519362525208E+03    0.68367E-03   -0.55740E-04  1029   0.441E-02    0.151E-01
RMM:  34    -0.519362496998E+03    0.28210E-04   -0.10879E-04  1024   0.194E-02    0.113E-01
RMM:  35    -0.519362508038E+03   -0.11040E-04   -0.57597E-05  1024   0.148E-02    0.121E-01
RMM:  36    -0.519362451407E+03    0.56631E-04   -0.34601E-05  1024   0.122E-02    0.427E-02
RMM:  37    -0.519362453753E+03   -0.23467E-05   -0.95024E-06   907   0.629E-03    0.475E-02
RMM:  38    -0.519362446079E+03    0.76749E-05   -0.55826E-06   869   0.515E-03    0.362E-02
RMM:  39    -0.519362440614E+03    0.54647E-05   -0.21201E-06   695   0.313E-03    0.799E-03
RMM:  40    -0.519362441916E+03   -0.13023E-05   -0.98409E-07   584   0.205E-03    0.149E-02
RMM:  41    -0.519362441200E+03    0.71611E-06   -0.66131E-07   539   0.179E-03
 augmentation electrons   754.118150008223     
 soft         electrons  0.000000000000000E+000
 total        electrons   754.118150008223     
 augmentation electrons   744.915488599233     
 soft         electrons  0.000000000000000E+000
 total        electrons   744.915488599233     
 augmentation electrons   418.737321001244     
 soft         electrons   335.381006593440     
 total        electrons   754.118327594684     
 translations:           1           1           1
   1 F= -.59231997E+03 E0= -.59223693E+03  d E =-.592320E+03
 curvature:   0.00 expect dE= 0.000E+00 dE for cont linesearch  0.000E+00
 trial: gam= 0.00000 g(F)=  0.277E+00 g(S)=  0.000E+00 ort = 0.000E+00 (trialstep = 0.100E+01)
 search vector abs. value=  0.277E+00
 bond charge predicted
       N       E                     dE             d eps       ncg     rms          rms(c)
RMM:   1    -0.517832929294E+03    0.15295E+01   -0.74175E+01  1030   0.184E+01    0.510E+00
RMM:   2    -0.520411816203E+03   -0.25789E+01   -0.14860E+01  1163   0.596E+00    0.187E+01
RMM:   3    -0.519618769209E+03    0.79305E+00   -0.26031E+00  1145   0.277E+00    0.544E+00
RMM:   4    -0.519582320255E+03    0.36449E-01   -0.23960E-01  1071   0.102E+00    0.483E+00
RMM:   5    -0.519506010173E+03    0.76310E-01   -0.78571E-02  1087   0.576E-01    0.201E+00
RMM:   6    -0.519514044342E+03   -0.80342E-02   -0.22089E-02  1057   0.296E-01    0.248E+00
RMM:   7    -0.519494306999E+03    0.19737E-01   -0.12793E-02  1024   0.251E-01    0.145E+00
RMM:   8    -0.519493449176E+03    0.85782E-03   -0.50002E-03  1043   0.142E-01    0.138E+00
RMM:   9    -0.519493559546E+03   -0.11037E-03   -0.91526E-03  1139   0.214E-01    0.144E+00
RMM:  10    -0.519486671020E+03    0.68885E-02   -0.29803E-03  1024   0.120E-01    0.557E-01
RMM:  11    -0.519486019820E+03    0.65120E-03   -0.10430E-03  1051   0.651E-02    0.382E-01
RMM:  12    -0.519486317551E+03   -0.29773E-03   -0.81911E-04  1038   0.561E-02    0.477E-01
RMM:  13    -0.519485337659E+03    0.97989E-03   -0.51030E-04  1025   0.480E-02    0.158E-01
RMM:  14    -0.519485339583E+03   -0.19242E-05   -0.12051E-04  1145   0.207E-02    0.169E-01
RMM:  15    -0.519485281176E+03    0.58408E-04   -0.10632E-04  1027   0.182E-02    0.135E-01
RMM:  16    -0.519485209577E+03    0.71598E-04   -0.47607E-05  1025   0.135E-02    0.449E-02
RMM:  17    -0.519485243850E+03   -0.34273E-04   -0.32266E-05  1024   0.105E-02    0.988E-02
RMM:  18    -0.519485209970E+03    0.33880E-04   -0.20321E-05   955   0.899E-03    0.446E-02
RMM:  19    -0.519485202752E+03    0.72183E-05   -0.48208E-06   861   0.424E-03    0.132E-02
RMM:  20    -0.519485204922E+03   -0.21697E-05   -0.21059E-06   724   0.265E-03    0.266E-02
RMM:  21    -0.519485202847E+03    0.20745E-05   -0.13646E-06   612   0.233E-03    0.134E-02
RMM:  22    -0.519485202129E+03    0.71869E-06   -0.39013E-07   531   0.126E-03
 augmentation electrons   754.197602323741     
 soft         electrons  0.000000000000000E+000
 total        electrons   754.197602323741     
 augmentation electrons   740.547728108420     
 soft         electrons  0.000000000000000E+000
 total        electrons   740.547728108420     
 augmentation electrons   418.826786129249     
 soft         electrons   335.371043359497     
 total        electrons   754.197829488746     
 translations:           1           1           1
   2 F= -.59247344E+03 E0= -.59238508E+03  d E =-.153467E+00
 trial-energy change:   -0.153467  1 .order   -0.155857   -0.276781   -0.034934
 step:   1.1551(harm=  1.1444)  dis= 0.01216  next Energy=  -592.476139 (dE=-0.156E+00)
 bond charge predicted
       N       E                     dE             d eps       ncg     rms          rms(c)
RMM:   1    -0.519442517923E+03    0.42685E-01   -0.17832E+00  1030   0.285E+00    0.782E-01
RMM:   2    -0.519512920397E+03   -0.70402E-01   -0.36993E-01  1171   0.943E-01    0.299E+00
RMM:   3    -0.519484529479E+03    0.28391E-01   -0.59500E-02  1105   0.437E-01    0.781E-01
RMM:   4    -0.519487714896E+03   -0.31854E-02   -0.77177E-03  1104   0.173E-01    0.124E+00
RMM:   5    -0.519482618789E+03    0.50961E-02   -0.22423E-03  1080   0.973E-02    0.298E-01
RMM:   6    -0.519482736545E+03   -0.11776E-03   -0.49995E-04  1097   0.403E-02    0.370E-01
RMM:   7    -0.519482811368E+03   -0.74823E-04   -0.31594E-04  1024   0.366E-02    0.386E-01
RMM:   8    -0.519482213284E+03    0.59808E-03   -0.24952E-04  1025   0.351E-02    0.141E-01
RMM:   9    -0.519482311208E+03   -0.97925E-04   -0.16110E-04  1027   0.253E-02    0.214E-01
RMM:  10    -0.519482194756E+03    0.11645E-03   -0.14822E-04  1075   0.263E-02    0.134E-01
RMM:  11    -0.519482124956E+03    0.69800E-04   -0.43408E-05  1043   0.142E-02    0.269E-02
RMM:  12    -0.519482130057E+03   -0.51008E-05   -0.12690E-05  1015   0.707E-03    0.436E-02
RMM:  13    -0.519482126196E+03    0.38610E-05   -0.64960E-06   884   0.523E-03    0.338E-02
RMM:  14    -0.519482122059E+03    0.41368E-05   -0.23048E-06   704   0.324E-03    0.878E-03
RMM:  15    -0.519482123809E+03   -0.17497E-05   -0.18050E-06   684   0.258E-03    0.223E-02
RMM:  16    -0.519482121906E+03    0.19027E-05   -0.12820E-06   580   0.236E-03    0.850E-03
RMM:  17    -0.519482121653E+03    0.25355E-06   -0.19079E-07   530   0.892E-04
 augmentation electrons   754.177333916738     
 soft         electrons  0.000000000000000E+000
 total        electrons   754.177333916738     
 augmentation electrons   742.060581632974     
 soft         electrons  0.000000000000000E+000
 total        electrons   742.060581632974     
 augmentation electrons   418.808947346091     
 soft         electrons   335.368613806849     
 total        electrons   754.177561152941     
 translations:           1           1           1
   3 F= -.59247448E+03 E0= -.59238602E+03  d E =-.154510E+00
 curvature:  -0.57 expect dE=-0.137E-01 dE for cont linesearch -0.410E-04
 trial: gam= 0.10318 g(F)=  0.241E-01 g(S)=  0.000E+00 ort =-0.447E-02 (trialstep = 0.103E+01)
 search vector abs. value=  0.261E-01
 bond charge predicted
       N       E                     dE             d eps       ncg     rms          rms(c)
RMM:   1    -0.519336720209E+03    0.14540E+00   -0.70196E+00  1028   0.561E+00    0.156E+00
RMM:   2    -0.519578104118E+03   -0.24138E+00   -0.15072E+00  1181   0.181E+00    0.499E+00
RMM:   3    -0.519515567971E+03    0.62536E-01   -0.23301E-01  1117   0.881E-01    0.194E+00
RMM:   4    -0.519536965158E+03   -0.21397E-01   -0.38966E-02  1080   0.386E-01    0.299E+00
RMM:   5    -0.519504932367E+03    0.32033E-01   -0.14709E-02  1067   0.254E-01    0.841E-01
RMM:   6    -0.519503182110E+03    0.17503E-02   -0.31951E-03  1123   0.106E-01    0.573E-01
RMM:   7    -0.519505045207E+03   -0.18631E-02   -0.13227E-03  1035   0.670E-02    0.959E-01
RMM:   8    -0.519501801226E+03    0.32440E-02   -0.12263E-03  1039   0.769E-02    0.304E-01
RMM:   9    -0.519501937453E+03   -0.13623E-03   -0.51776E-04  1028   0.444E-02    0.369E-01
RMM:  10    -0.519501489283E+03    0.44817E-03   -0.55069E-04  1092   0.496E-02    0.189E-01
RMM:  11    -0.519501367119E+03    0.12216E-03   -0.11938E-04  1067   0.230E-02    0.635E-02
RMM:  12    -0.519501403882E+03   -0.36763E-04   -0.54040E-05  1050   0.143E-02    0.112E-01
RMM:  13    -0.519501357618E+03    0.46264E-04   -0.29834E-05  1024   0.114E-02    0.395E-02
RMM:  14    -0.519501353653E+03    0.39649E-05   -0.97991E-06   965   0.630E-03    0.279E-02
RMM:  15    -0.519501363270E+03   -0.96164E-05   -0.75763E-06   876   0.501E-03    0.568E-02
RMM:  16    -0.519501351394E+03    0.11876E-04   -0.50962E-06   853   0.465E-03    0.175E-02
RMM:  17    -0.519501350275E+03    0.11185E-05   -0.10496E-06   583   0.199E-03    0.791E-03
RMM:  18    -0.519501350907E+03   -0.63142E-06   -0.71302E-07   548   0.156E-03
 augmentation electrons   754.122073276379     
 soft         electrons  0.000000000000000E+000
 total        electrons   754.122073276379     
 augmentation electrons   751.053314848821     
 soft         electrons  0.000000000000000E+000
 total        electrons   751.053314848821     
 augmentation electrons   418.752614848113     
 soft         electrons   335.369690478421     
 total        electrons   754.122305326534     
 translations:           1           1           1
   4 F= -.59249081E+03 E0= -.59240362E+03  d E =-.163303E-01
 trial-energy change:   -0.016330  1 .order   -0.017149   -0.024364   -0.009933
 step:   1.7407(harm=  1.7407)  dis= 0.00918  next Energy=  -592.495049 (dE=-0.206E-01)
 bond charge predicted
       N       E                     dE             d eps       ncg     rms          rms(c)
RMM:   1    -0.519429770650E+03    0.71580E-01   -0.33267E+00  1028   0.386E+00    0.117E+00
RMM:   2    -0.519630303374E+03   -0.20053E+00   -0.77218E-01  1153   0.136E+00    0.586E+00
RMM:   3    -0.519512117445E+03    0.11819E+00   -0.12097E-01  1071   0.692E-01    0.121E+00
RMM:   4    -0.519527775183E+03   -0.15658E-01   -0.29306E-02  1124   0.322E-01    0.224E+00
RMM:   5    -0.519510051570E+03    0.17724E-01   -0.88641E-03  1031   0.203E-01    0.844E-01
RMM:   6    -0.519507741227E+03    0.23103E-02   -0.21840E-03  1110   0.906E-02    0.393E-01
RMM:   7    -0.519508209728E+03   -0.46850E-03   -0.77422E-04  1036   0.530E-02    0.530E-01
RMM:   8    -0.519507500614E+03    0.70911E-03   -0.67877E-04  1035   0.561E-02    0.387E-01
RMM:   9    -0.519507051766E+03    0.44885E-03   -0.24192E-04  1030   0.326E-02    0.188E-01
RMM:  10    -0.519507153243E+03   -0.10148E-03   -0.22806E-04  1044   0.285E-02    0.245E-01
RMM:  11    -0.519506978803E+03    0.17444E-03   -0.20675E-04  1083   0.307E-02    0.150E-01
RMM:  12    -0.519506895092E+03    0.83710E-04   -0.55760E-05  1048   0.158E-02    0.395E-02
RMM:  13    -0.519506901014E+03   -0.59220E-05   -0.18688E-05  1021   0.847E-03    0.546E-02
RMM:  14    -0.519506892141E+03    0.88738E-05   -0.98614E-06   954   0.662E-03    0.284E-02
RMM:  15    -0.519506889597E+03    0.25435E-05   -0.34271E-06   788   0.389E-03    0.155E-02
RMM:  16    -0.519506891896E+03   -0.22986E-05   -0.20181E-06   697   0.275E-03    0.278E-02
RMM:  17    -0.519506889098E+03    0.27981E-05   -0.13950E-06   584   0.254E-03    0.103E-02
RMM:  18    -0.519506888670E+03    0.42743E-06   -0.35961E-07   528   0.123E-03
 augmentation electrons   754.046954023571     
 soft         electrons  0.000000000000000E+000
 total        electrons   754.046954023571     
 augmentation electrons   766.924885838864     
 soft         electrons  0.000000000000000E+000
 total        electrons   766.924885838864     
 augmentation electrons   418.677352275884     
 soft         electrons   335.369838524659     
 total        electrons   754.047190800543     
 translations:           1           1           1
   5 F= -.59249343E+03 E0= -.59240737E+03  d E =-.189507E-01
 curvature:  -0.96 expect dE=-0.744E-02 dE for cont linesearch -0.213E-07
 trial: gam= 0.30418 g(F)=  0.773E-02 g(S)=  0.000E+00 ort =-0.241E-04 (trialstep = 0.117E+01)
 search vector abs. value=  0.101E-01
 bond charge predicted
       N       E                     dE             d eps       ncg     rms          rms(c)
RMM:   1    -0.519442456456E+03    0.64433E-01   -0.35233E+00  1028   0.405E+00    0.123E+00
RMM:   2    -0.519673515095E+03   -0.23106E+00   -0.80216E-01  1129   0.138E+00    0.603E+00
RMM:   3    -0.519528010147E+03    0.14550E+00   -0.15116E-01  1073   0.770E-01    0.105E+00
RMM:   4    -0.519544086997E+03   -0.16077E-01   -0.34312E-02  1120   0.345E-01    0.222E+00
RMM:   5    -0.519526955235E+03    0.17132E-01   -0.99120E-03  1043   0.214E-01    0.816E-01
RMM:   6    -0.519524907620E+03    0.20476E-02   -0.21938E-03  1115   0.870E-02    0.407E-01
RMM:   7    -0.519525661868E+03   -0.75425E-03   -0.87103E-04  1050   0.521E-02    0.625E-01
RMM:   8    -0.519524507379E+03    0.11545E-02   -0.65920E-04  1040   0.566E-02    0.354E-01
RMM:   9    -0.519524172171E+03    0.33521E-03   -0.27178E-04  1035   0.329E-02    0.188E-01
RMM:  10    -0.519524128330E+03    0.43841E-04   -0.27914E-04  1110   0.353E-02    0.173E-01
RMM:  11    -0.519524025535E+03    0.10279E-03   -0.66926E-05  1068   0.173E-02    0.345E-02
RMM:  12    -0.519524031687E+03   -0.61511E-05   -0.20271E-05  1026   0.873E-03    0.499E-02
RMM:  13    -0.519524026932E+03    0.47546E-05   -0.11307E-05   961   0.688E-03    0.399E-02
RMM:  14    -0.519524021148E+03    0.57839E-05   -0.45831E-06   871   0.444E-03    0.155E-02
RMM:  15    -0.519524023819E+03   -0.26708E-05   -0.28281E-06   756   0.316E-03    0.298E-02
RMM:  16    -0.519524020392E+03    0.34266E-05   -0.17765E-06   645   0.283E-03    0.677E-03
RMM:  17    -0.519524020243E+03    0.14958E-06   -0.23982E-07   527   0.101E-03
 augmentation electrons   753.991121753973     
 soft         electrons  0.000000000000000E+000
 total        electrons   753.991121753973     
 augmentation electrons   786.436946936975     
 soft         electrons  0.000000000000000E+000
 total        electrons   786.436946936975     
 augmentation electrons   418.622440034147     
 soft         electrons   335.368937537584     
 total        electrons   753.991377571731     
 translations:           1           1           1
   6 F= -.59249889E+03 E0= -.59241601E+03  d E =-.545987E-02
 trial-energy change:   -0.005460  1 .order   -0.006672   -0.009059   -0.004285
 step:   2.2257(harm=  2.2257)  dis= 0.00667  next Energy=  -592.502027 (dE=-0.859E-02)
 bond charge predicted
       N       E                     dE             d eps       ncg     rms          rms(c)
RMM:   1    -0.519470056511E+03    0.53964E-01   -0.28369E+00  1028   0.364E+00    0.112E+00
RMM:   2    -0.519673318275E+03   -0.20326E+00   -0.65764E-01  1138   0.126E+00    0.581E+00
RMM:   3    -0.519539049721E+03    0.13427E+00   -0.12446E-01  1068   0.709E-01    0.964E-01
RMM:   4    -0.519552644110E+03   -0.13594E-01   -0.28454E-02  1117   0.316E-01    0.205E+00
RMM:   5    -0.519537969272E+03    0.14675E-01   -0.83829E-03  1044   0.197E-01    0.726E-01
RMM:   6    -0.519536286166E+03    0.16831E-02   -0.18595E-03  1110   0.814E-02    0.358E-01
RMM:   7    -0.519536927980E+03   -0.64181E-03   -0.77302E-04  1038   0.500E-02    0.561E-01
RMM:   8    -0.519535721605E+03    0.12064E-02   -0.60531E-04  1039   0.533E-02    0.170E-01
RMM:   9    -0.519536034300E+03   -0.31269E-03   -0.31607E-04  1031   0.348E-02    0.348E-01
RMM:  10    -0.519535702777E+03    0.33152E-03   -0.28900E-04  1074   0.355E-02    0.155E-01
RMM:  11    -0.519535597242E+03    0.10553E-03   -0.78085E-05  1047   0.188E-02    0.265E-02
RMM:  12    -0.519535606562E+03   -0.93204E-05   -0.20714E-05  1079   0.884E-03    0.563E-02
RMM:  13    -0.519535604769E+03    0.17934E-05   -0.84456E-06   887   0.564E-03    0.492E-02
RMM:  14    -0.519535595682E+03    0.90868E-05   -0.50692E-06   865   0.459E-03    0.163E-02
RMM:  15    -0.519535596777E+03   -0.10945E-05   -0.23260E-06   726   0.274E-03    0.236E-02
RMM:  16    -0.519535595757E+03    0.10198E-05   -0.15647E-06   617   0.256E-03    0.166E-02
RMM:  17    -0.519535594659E+03    0.10982E-05   -0.57906E-07   528   0.153E-03    0.398E-03
RMM:  18    -0.519535594758E+03   -0.99011E-07   -0.12697E-07   525   0.669E-04
 augmentation electrons   753.929668005667     
 soft         electrons  0.000000000000000E+000
 total        electrons   753.929668005667     
 augmentation electrons   813.994385076093     
 soft         electrons  0.000000000000000E+000
 total        electrons   813.994385076093     
 augmentation electrons   418.561956073050     
 soft         electrons   335.367988906126     
 total        electrons   753.929944979177     
 translations:           1           1           1
   7 F= -.59249952E+03 E0= -.59242047E+03  d E =-.608939E-02
 curvature:  -1.46 expect dE=-0.424E-02 dE for cont linesearch -0.529E-05
 trial: gam= 0.42086 g(F)=  0.291E-02 g(S)=  0.000E+00 ort =-0.192E-03 (trialstep = 0.138E+01)
 search vector abs. value=  0.454E-02
 bond charge predicted
       N       E                     dE             d eps       ncg     rms          rms(c)
RMM:   1    -0.519503309404E+03    0.32285E-01   -0.21772E+00  1028   0.302E+00    0.924E-01
RMM:   2    -0.519631715837E+03   -0.12841E+00   -0.50093E-01  1149   0.104E+00    0.466E+00
RMM:   3    -0.519557570213E+03    0.74146E-01   -0.64851E-02  1085   0.495E-01    0.838E-01
RMM:   4    -0.519566185239E+03   -0.86150E-02   -0.14469E-02  1107   0.227E-01    0.172E+00
RMM:   5    -0.519555374067E+03    0.10811E-01   -0.57366E-03  1042   0.157E-01    0.388E-01
RMM:   6    -0.519555171129E+03    0.20294E-03   -0.10459E-03  1129   0.591E-02    0.331E-01
RMM:   7    -0.519555584384E+03   -0.41326E-03   -0.56270E-04  1025   0.465E-02    0.494E-01
RMM:   8    -0.519554759615E+03    0.82477E-03   -0.40349E-04  1029   0.408E-02    0.193E-01
RMM:   9    -0.519554747330E+03    0.12284E-04   -0.15478E-04  1024   0.239E-02    0.191E-01
RMM:  10    -0.519554855577E+03   -0.10825E-03   -0.18133E-04  1061   0.257E-02    0.253E-01
RMM:  11    -0.519554618085E+03    0.23749E-03   -0.11123E-04  1036   0.220E-02    0.612E-02
RMM:  12    -0.519554605870E+03    0.12215E-04   -0.23089E-05  1076   0.929E-03    0.302E-02
RMM:  13    -0.519554616941E+03   -0.11071E-04   -0.11383E-05   933   0.636E-03    0.595E-02
RMM:  14    -0.519554604269E+03    0.12672E-04   -0.67981E-06   879   0.544E-03    0.195E-02
RMM:  15    -0.519554603426E+03    0.84279E-06   -0.16910E-06   666   0.256E-03
 augmentation electrons   753.816338749074     
 soft         electrons  0.000000000000000E+000
 total        electrons   753.816338749074     
 augmentation electrons   883.759707779658     
 soft         electrons  0.000000000000000E+000
 total        electrons   883.759707779658     
 augmentation electrons   418.449679096115     
 soft         electrons   335.366920539312     
 total        electrons   753.816599635427     
 translations:           1           1           1
   8 F= -.59249960E+03 E0= -.59242338E+03  d E =-.732832E-04
 trial-energy change:   -0.000073  1 .order   -0.002946   -0.003910   -0.001982
 step:   2.8065(harm=  2.8065)  dis= 0.00705  next Energy=  -592.503488 (dE=-0.397E-02)
 bond charge predicted
       N       E                     dE             d eps       ncg     rms          rms(c)
RMM:   1    -0.519519235484E+03    0.35369E-01   -0.23010E+00  1028   0.311E+00    0.111E+00
RMM:   2    -0.519835302761E+03   -0.31607E+00   -0.60515E-01  1165   0.121E+00    0.843E+00
RMM:   3    -0.519576586973E+03    0.25872E+00   -0.10247E-01  1033   0.670E-01    0.941E-01
RMM:   4    -0.519589814550E+03   -0.13228E-01   -0.27866E-02  1133   0.301E-01    0.211E+00
RMM:   5    -0.519574193159E+03    0.15621E-01   -0.84416E-03  1032   0.191E-01    0.637E-01
RMM:   6    -0.519572896615E+03    0.12965E-02   -0.16350E-03  1106   0.756E-02    0.329E-01
RMM:   7    -0.519573301335E+03   -0.40472E-03   -0.52784E-04  1044   0.423E-02    0.475E-01
RMM:   8    -0.519572881125E+03    0.42021E-03   -0.42921E-04  1033   0.423E-02    0.360E-01
RMM:   9    -0.519572473203E+03    0.40792E-03   -0.27044E-04  1028   0.328E-02    0.180E-01
RMM:  10    -0.519572684843E+03   -0.21164E-03   -0.24060E-04  1037   0.287E-02    0.295E-01
RMM:  11    -0.519572399208E+03    0.28563E-03   -0.20639E-04  1061   0.300E-02    0.128E-01
RMM:  12    -0.519572337202E+03    0.62007E-04   -0.46529E-05  1043   0.141E-02    0.330E-02
RMM:  13    -0.519572352256E+03   -0.15055E-04   -0.19695E-05  1027   0.859E-03    0.681E-02
RMM:  14    -0.519572339728E+03    0.12528E-04   -0.10518E-05   936   0.680E-03    0.384E-02
RMM:  15    -0.519572334455E+03    0.52736E-05   -0.36213E-06   813   0.397E-03    0.144E-02
RMM:  16    -0.519572336618E+03   -0.21631E-05   -0.25645E-06   733   0.307E-03    0.260E-02
RMM:  17    -0.519572334249E+03    0.23682E-05   -0.16316E-06   622   0.273E-03    0.905E-03
RMM:  18    -0.519572333962E+03    0.28746E-06   -0.32773E-07   532   0.116E-03
 augmentation electrons   753.757760400306     
 soft         electrons  0.000000000000000E+000
 total        electrons   753.757760400306     
 augmentation electrons   1018.57357211857     
 soft         electrons  0.000000000000000E+000
 total        electrons   1018.57357211857     
 augmentation electrons   418.392256198991     
 soft         electrons   335.365754317086     
 total        electrons   753.758010516078     
 translations:           1           1           1
   9 F= -.59249733E+03 E0= -.59242427E+03  d E =0.218935E-02
 curvature:  -2.25 expect dE=-0.659E-03 dE for cont linesearch -0.109E-05
 trial: gam=-0.01423 g(F)=  0.292E-03 g(S)=  0.000E+00 ort =-0.469E-04 (trialstep = 0.167E+01)
 search vector abs. value=  0.294E-03
 reached required accuracy - stopping structural energy minimisation
 writing wavefunctions
