 vasp.6.3.2 27Jun22 (build Nov 12 2024 19:13:04) complex                        
  
 executed on             LinuxIFC date 2025.02.03  21:57:05
 running  512 mpi-ranks, with    1 threads/rank
 distrk:  each k-point on  512 cores,    1 groups
 distr:  one band on NCORE=   4 cores,  128 groups


--------------------------------------------------------------------------------------------------------


 INCAR:
   SYSTEM = MnBrNCH geometry relaxation
   NCORE = 4
   ISTART = 0
   ICHARG = 2
   ISYM = 0
   GGA = PE
   IVDW = 2
   IALGO = 48
   ISMEAR = 0
   SIGMA = 0.05
   ENCUT = 500
   NELM = 5000
   EDIFF = 1E-06
   EDIFFG = -0.02
   LREAL = Auto
   IBRION = 2
   NSW = 10000

 POTCAR:    PAW_PBE Mn_pv 02Aug2007               
 POTCAR:    PAW_PBE Mn_pv 02Aug2007               
   SHA256 =  c79df11ab18a0e3347296df6ded47bb5f18b2e4fbd621d0b5280d2eae24c30a0 Mn_pv/POTCAR          
   COPYR  = (c) Copyright 02Aug2007 Georg Kresse                                                    
   COPYR  = This file is part of the software VASP. Any use, copying, and all other rights are regul
   COPYR  = If you do not have a valid VASP license, you may not use, copy or distribute this file. 
   VRHFIN =Mn: 3p4s3d                                                                               
   LEXCH  = PE                                                                                      
   EATOM  =  2025.2664 eV,  148.8529 Ry                                                             
                                                                                                    
   TITEL  = PAW_PBE Mn_pv 02Aug2007                                                                 
   LULTRA =        F    use ultrasoft PP ?                                                          
   IUNSCR =        1    unscreen: 0-lin 1-nonlin 2-no                                               
   RPACOR =    2.080    partial core radius                                                         
   POMASS =   54.938; ZVAL   =   13.000    mass and valenz                                          
   RCORE  =    2.300    outmost cutoff radius                                                       
   RWIGS  =    2.500; RWIGS  =    1.323    wigner-seitz radius (au A)                               
   ENMAX  =  269.864; ENMIN  =  202.398 eV                                                          
   ICORE  =        3    local potential                                                             
   LCOR   =        T    correct aug charges                                                         
   LPAW   =        T    paw PP                                                                      
   EAUG   =  569.085                                                                                
   DEXC   =    0.000                                                                                
   RMAX   =    2.343    core radius for proj-oper                                                   
   RAUG   =    1.300    factor for augmentation sphere                                              
   RDEP   =    2.338    radius for radial grids                                                     
   RDEPT  =    1.798    core radius for aug-charge                                                  
                                                                                                    
   Atomic configuration                                                                             
    8 entries                                                                                       
     n  l   j            E        occ.                                                              
     1  0  0.50     -6424.8287   2.0000                                                             
     2  0  0.50      -739.1154   2.0000                                                             
     2  1  1.50      -625.3949   6.0000                                                             
     3  0  0.50       -81.6100   2.0000                                                             
     3  1  1.50       -50.4667   6.0000                                                             
     3  2  2.50        -3.3745   6.0000                                                             
     4  0  0.50        -4.1331   1.0000                                                             
     4  3  2.50        -1.3606   0.0000                                                             
   Description                                                                                      
     l       E           TYP  RCUT    TYP  RCUT                                                     
     1    -50.4666628     23  2.000                                                                 
     1     -1.3605826     23  2.000                                                                 
     2     -3.3744729     23  2.300                                                                 
     2     -4.7350555     23  2.300                                                                 
     0     -4.1331431     23  2.300                                                                 
     0      7.6656591     23  2.300                                                                 
     3      9.5240782     23  2.300                                                                 
  local pseudopotential read in
  partial core-charges read in
  partial kinetic energy density read in
  atomic valenz-charges read in
  non local Contribution for L=           1  read in
    real space projection operators read in
  non local Contribution for L=           1  read in
    real space projection operators read in
  non local Contribution for L=           2  read in
    real space projection operators read in
  non local Contribution for L=           2  read in
    real space projection operators read in
  non local Contribution for L=           0  read in
    real space projection operators read in
  non local Contribution for L=           0  read in
    real space projection operators read in
    PAW grid and wavefunctions read in
 
   number of l-projection  operators is LMAX  =           6
   number of lm-projection operators is LMMAX =          18
 
 Optimization of the real space projectors (new method)

 maximal supplied QI-value         = 16.25
 optimisation between [QCUT,QGAM] = [ 11.38, 22.75] = [ 36.24,144.96] Ry 
 Optimized for a Real-space Cutoff    1.35 Angstroem

   l    n(q)    QCUT    max X(q) W(low)/X(q) W(high)/X(q)  e(spline) 
   1      9    11.376     3.658    0.21E-03    0.20E-03    0.75E-07
   1      9    11.376     5.612    0.42E-03    0.37E-03    0.14E-06
   2      8    11.376    55.373    0.42E-03    0.47E-03    0.17E-06
   2      8    11.376    50.863    0.43E-03    0.48E-03    0.17E-06
   0      9    11.376    79.536    0.15E-03    0.13E-03    0.43E-07
   0      9    11.376    38.668    0.14E-03    0.12E-03    0.40E-07
  PAW_PBE Mn_pv 02Aug2007               :
 energy of atom  1       EATOM=-2025.2664
 kinetic energy error for atom=    0.0062 (will be added to EATOM!!)
 
 
 POSCAR: Mn58
  positions in cartesian coordinates
  No initial velocities read in
 exchange correlation table for  LEXCH =        8
   RHO(1)=    0.500       N(1)  =     2000
   RHO(2)=  100.500       N(2)  =     4000
 


--------------------------------------------------------------------------------------------------------


 ion  position               nearest neighbor table
   1  0.000  0.000  0.000-  51 2.67  52 2.67  58 2.67  19 2.67  20 2.67  24 2.67  21 2.67  25 2.67
                            26 2.67  18 2.67  27 2.67  28 2.67  31 2.71   4 2.71   5 2.71   3 2.71
   2  0.319  0.319  0.319-   6 2.48  16 2.48  15 2.48  48 2.61  49 2.61  50 2.61  53 2.61  54 2.61
                            55 2.61  30 2.71  27 2.82  28 2.82  18 2.82  10 2.83  11 2.83  17 2.83
   3  0.181  0.181  0.819-   7 2.48  13 2.48  10 2.48  21 2.61  26 2.61  52 2.61  58 2.61  18 2.61
                            28 2.61   1 2.71  22 2.82  54 2.82  48 2.82  37 2.83  41 2.83  15 2.83
   4  0.819  0.181  0.181-   8 2.48  14 2.48  11 2.48  24 2.61  25 2.61  51 2.61  58 2.61  18 2.61
                            27 2.61   1 2.71  23 2.82  55 2.82  49 2.82  36 2.83  38 2.83  16 2.83
   5  0.181  0.819  0.181-   9 2.48  12 2.48  17 2.48  19 2.61  20 2.61  51 2.61  52 2.61  27 2.61
                            28 2.61   1 2.71  29 2.82  50 2.82  53 2.82  43 2.83  42 2.83   6 2.83
   6  0.356  0.035  0.356-  29 2.28  27 2.43  28 2.43   2 2.48  36 2.55  37 2.55  11 2.57  10 2.57
                            12 2.57   9 2.57  48 2.59  49 2.59   5 2.83
   7  0.144  0.465  0.856-  20 2.28  22 2.43  54 2.43   3 2.48  35 2.55  17 2.55  41 2.57  40 2.57
                            15 2.57  43 2.57  58 2.59  18 2.59  33 2.83
   8  0.856  0.465  0.144-  19 2.28  23 2.43  55 2.43   4 2.48  35 2.55  17 2.55  38 2.57  39 2.57
                            16 2.57  42 2.57  58 2.59  18 2.59  32 2.83
   9  0.144  0.856  0.465-  26 2.28  29 2.43  53 2.43   5 2.48  44 2.55  10 2.55  42 2.57  40 2.57
                             6 2.57  37 2.57  51 2.59  27 2.59  33 2.83
  10  0.144  0.144  0.535-  27 2.28  48 2.43  54 2.43   3 2.48  14 2.55   9 2.55  16 2.57   6 2.57
                            37 2.57  41 2.57  26 2.59  21 2.59   2 2.83
  11  0.535  0.144  0.144-  28 2.28  55 2.43  49 2.43   4 2.48  13 2.55  12 2.55  15 2.57   6 2.57
                            36 2.57  38 2.57  25 2.59  24 2.59   2 2.83
  12  0.465  0.856  0.144-  25 2.28  29 2.43  50 2.43   5 2.48  45 2.55  11 2.55  43 2.57  39 2.57
                             6 2.57  36 2.57  52 2.59  28 2.59  32 2.83
  13  0.465  0.144  0.856-  24 2.28  22 2.43  48 2.43   3 2.48  45 2.55  11 2.55  37 2.57  46 2.57
                            15 2.57  38 2.57  52 2.59  28 2.59  34 2.83
  14  0.856  0.144  0.465-  21 2.28  23 2.43  49 2.43   4 2.48  44 2.55  10 2.55  36 2.57  46 2.57
                            16 2.57  41 2.57  51 2.59  27 2.59  34 2.83
  15  0.356  0.356  0.035-  22 2.28  28 2.43  18 2.43   2 2.48  38 2.55  43 2.55  17 2.57  11 2.57
                             7 2.57  13 2.57  50 2.59  55 2.59   3 2.83
  16  0.035  0.356  0.356-  23 2.28  27 2.43  18 2.43   2 2.48  41 2.55  42 2.55  17 2.57  10 2.57
                             8 2.57  14 2.57  53 2.59  54 2.59   4 2.83
  17  0.144  0.535  0.144-  18 2.28  50 2.43  53 2.43   5 2.48   8 2.55   7 2.55  16 2.57  15 2.57
                            42 2.57  43 2.57  19 2.59  20 2.59   2 2.83
  18  0.089  0.283  0.089-  58 2.17  17 2.28  28 2.36  27 2.36  15 2.43  16 2.43   7 2.59   8 2.59
                             3 2.61   4 2.61   1 2.67   2 2.82
  19  0.911  0.717  0.089-  20 2.17   8 2.28  51 2.36  25 2.36  42 2.43  39 2.43  17 2.59  35 2.59
                             5 2.61  31 2.61   1 2.67  32 2.82
  20  0.089  0.717  0.911-  19 2.17   7 2.28  52 2.36  26 2.36  43 2.43  40 2.43  17 2.59  35 2.59
                             5 2.61  31 2.61   1 2.67  33 2.82
  21  0.911  0.089  0.717-  26 2.17  14 2.28  58 2.36  24 2.36  41 2.43  46 2.43  10 2.59  44 2.59
                             3 2.61  31 2.61   1 2.67  34 2.82
  22  0.411  0.411  0.783-  56 2.17  15 2.28  54 2.36  48 2.36   7 2.43  13 2.43  43 2.59  38 2.59
                            34 2.61  33 2.61  30 2.67   3 2.82
  23  0.783  0.411  0.411-  57 2.17  16 2.28  55 2.36  49 2.36   8 2.43  14 2.43  42 2.59  41 2.59
                            34 2.61  32 2.61  30 2.67   4 2.82
  24  0.717  0.089  0.911-  25 2.17  13 2.28  58 2.36  21 2.36  38 2.43  46 2.43  11 2.59  45 2.59
                             4 2.61  31 2.61   1 2.67  34 2.82
  25  0.717  0.911  0.089-  24 2.17  12 2.28  51 2.36  19 2.36  36 2.43  39 2.43  11 2.59  45 2.59
                             4 2.61  31 2.61   1 2.67  32 2.82
  26  0.089  0.911  0.717-  21 2.17   9 2.28  52 2.36  20 2.36  37 2.43  40 2.43  10 2.59  44 2.59
                             3 2.61  31 2.61   1 2.67  33 2.82
  27  0.089  0.089  0.283-  51 2.17  10 2.28  28 2.36  18 2.36  16 2.43   6 2.43   9 2.59  14 2.59
                             4 2.61   5 2.61   1 2.67   2 2.82
  28  0.283  0.089  0.089-  52 2.17  11 2.28  27 2.36  18 2.36  15 2.43   6 2.43  12 2.59  13 2.59
                             3 2.61   5 2.61   1 2.67   2 2.82
  29  0.411  0.783  0.411-  47 2.17   6 2.28  50 2.36  53 2.36  12 2.43   9 2.43  37 2.59  36 2.59
                            33 2.61  32 2.61  30 2.67   5 2.82
  30  0.500  0.500  0.500-  47 2.67  56 2.67  57 2.67  50 2.67  53 2.67  54 2.67  55 2.67  48 2.67
                            49 2.67  22 2.67  23 2.67  29 2.67   2 2.71  32 2.71  33 2.71  34 2.71
  31  0.819  0.819  0.819-  35 2.48  44 2.48  45 2.48  24 2.61  25 2.61  26 2.61  19 2.61  20 2.61
                            21 2.61   1 2.71  47 2.82  56 2.82  57 2.82  39 2.83  40 2.83  46 2.83
  32  0.681  0.681  0.319-  39 2.48  36 2.48  42 2.48  47 2.61  57 2.61  29 2.61  23 2.61  55 2.61
                            50 2.61  30 2.71  25 2.82  19 2.82  51 2.82  44 2.83   8 2.83  12 2.83
  33  0.319  0.681  0.681-  40 2.48  37 2.48  43 2.48  47 2.61  56 2.61  29 2.61  22 2.61  54 2.61
                            53 2.61  30 2.71  26 2.82  20 2.82  52 2.82  45 2.83   7 2.83   9 2.83
  34  0.681  0.319  0.681-  46 2.48  41 2.48  38 2.48  56 2.61  57 2.61  23 2.61  22 2.61  48 2.61
                            49 2.61  30 2.71  21 2.82  24 2.82  58 2.82  35 2.83  13 2.83  14 2.83
  35  0.856  0.535  0.856-  58 2.28  57 2.43  56 2.43  31 2.48   7 2.55   8 2.55  41 2.57  38 2.57
                            40 2.57  39 2.57  19 2.59  20 2.59  34 2.83
  36  0.644  0.965  0.356-  49 2.28  25 2.43  51 2.43  32 2.48   6 2.55  46 2.55  14 2.57  44 2.57
                            11 2.57  12 2.57  47 2.59  29 2.59   4 2.83
  37  0.356  0.965  0.644-  48 2.28  26 2.43  52 2.43  33 2.48   6 2.55  46 2.55  13 2.57  45 2.57
                            10 2.57   9 2.57  47 2.59  29 2.59   3 2.83
  38  0.644  0.356  0.965-  55 2.28  24 2.43  58 2.43  34 2.48  15 2.55  39 2.55   8 2.57  35 2.57
                            11 2.57  13 2.57  56 2.59  22 2.59   4 2.83
  39  0.644  0.644  0.035-  56 2.28  25 2.43  19 2.43  32 2.48  43 2.55  38 2.55  12 2.57   8 2.57
                            45 2.57  35 2.57  55 2.59  50 2.59  31 2.83
  40  0.035  0.644  0.644-  57 2.28  26 2.43  20 2.43  33 2.48  42 2.55  41 2.55   7 2.57   9 2.57
                            44 2.57  35 2.57  54 2.59  53 2.59  31 2.83
  41  0.965  0.356  0.644-  54 2.28  21 2.43  58 2.43  34 2.48  16 2.55  40 2.55   7 2.57  35 2.57
                            10 2.57  14 2.57  57 2.59  23 2.59   3 2.83
  42  0.965  0.644  0.356-  53 2.28  19 2.43  51 2.43  32 2.48  16 2.55  40 2.55   9 2.57  44 2.57
                            17 2.57   8 2.57  57 2.59  23 2.59   5 2.83
  43  0.356  0.644  0.965-  50 2.28  20 2.43  52 2.43  33 2.48  15 2.55  39 2.55  12 2.57  45 2.57
                            17 2.57   7 2.57  56 2.59  22 2.59   5 2.83
  44  0.856  0.856  0.535-  51 2.28  47 2.43  57 2.43  31 2.48   9 2.55  14 2.55  42 2.57  36 2.57
                            46 2.57  40 2.57  26 2.59  21 2.59  32 2.83
  45  0.535  0.856  0.856-  52 2.28  47 2.43  56 2.43  31 2.48  12 2.55  13 2.55  43 2.57  37 2.57
                            46 2.57  39 2.57  24 2.59  25 2.59  33 2.83
  46  0.644  0.035  0.644-  47 2.28  24 2.43  21 2.43  34 2.48  37 2.55  36 2.55  13 2.57  14 2.57
                            45 2.57  44 2.57  48 2.59  49 2.59  31 2.83
  47  0.589  0.783  0.589-  29 2.17  46 2.28  56 2.36  57 2.36  45 2.43  44 2.43  36 2.59  37 2.59
                            33 2.61  32 2.61  30 2.67  31 2.82
  48  0.411  0.217  0.589-  49 2.17  37 2.28  54 2.36  22 2.36  13 2.43  10 2.43   6 2.59  46 2.59
                             2 2.61  34 2.61  30 2.67   3 2.82
  49  0.589  0.217  0.411-  48 2.17  36 2.28  55 2.36  23 2.36  14 2.43  11 2.43   6 2.59  46 2.59
                             2 2.61  34 2.61  30 2.67   4 2.82
  50  0.411  0.589  0.217-  55 2.17  43 2.28  53 2.36  29 2.36  12 2.43  17 2.43  15 2.59  39 2.59
                             2 2.61  32 2.61  30 2.67   5 2.82
  51  0.911  0.911  0.283-  27 2.17  44 2.28  19 2.36  25 2.36  42 2.43  36 2.43   9 2.59  14 2.59
                             4 2.61   5 2.61   1 2.67  32 2.82
  52  0.283  0.911  0.911-  28 2.17  45 2.28  20 2.36  26 2.36  43 2.43  37 2.43  12 2.59  13 2.59
                             3 2.61   5 2.61   1 2.67  33 2.82
  53  0.217  0.589  0.411-  54 2.17  42 2.28  50 2.36  29 2.36   9 2.43  17 2.43  16 2.59  40 2.59
                             2 2.61  33 2.61  30 2.67   5 2.82
  54  0.217  0.411  0.589-  53 2.17  41 2.28  48 2.36  22 2.36   7 2.43  10 2.43  16 2.59  40 2.59
                             2 2.61  33 2.61  30 2.67   3 2.82
  55  0.589  0.411  0.217-  50 2.17  38 2.28  49 2.36  23 2.36   8 2.43  11 2.43  15 2.59  39 2.59
                             2 2.61  32 2.61  30 2.67   4 2.82
  56  0.589  0.589  0.783-  22 2.17  39 2.28  47 2.36  57 2.36  35 2.43  45 2.43  43 2.59  38 2.59
                            34 2.61  33 2.61  30 2.67  31 2.82
  57  0.783  0.589  0.589-  23 2.17  40 2.28  47 2.36  56 2.36  35 2.43  44 2.43  42 2.59  41 2.59
                            34 2.61  32 2.61  30 2.67  31 2.82
  58  0.911  0.283  0.911-  18 2.17  35 2.28  24 2.36  21 2.36  38 2.43  41 2.43   7 2.59   8 2.59
                             3 2.61   4 2.61   1 2.67  34 2.82
 

IMPORTANT INFORMATION: All symmetrisations will be switched off!
NOSYMM: (Re-)initialisation of all symmetry stuff for point group C_1.


----------------------------------------------------------------------------------------

                                     Primitive cell                                     

  volume of cell :     640.1691

  direct lattice vectors                    reciprocal lattice vectors
     8.618497849  0.000000000  0.000000000     0.116029500  0.000000000  0.000000000
     0.000000000  8.618497849  0.000000000     0.000000000  0.116029500  0.000000000
     0.000000000  0.000000000  8.618497849     0.000000000  0.000000000  0.116029500

  length of vectors
     8.618497849  8.618497849  8.618497849     0.116029500  0.116029500  0.116029500

  position of ions in fractional coordinates (direct lattice)
     0.000000000  0.000000000  0.000000000
     0.318786502  0.318786502  0.318786502
     0.181213498  0.181213498  0.818786502
     0.818786502  0.181213498  0.181213498
     0.181213498  0.818786502  0.181213498
     0.356204003  0.035468001  0.356204003
     0.143795997  0.464531988  0.856203973
     0.856203973  0.464531988  0.143795997
     0.143795997  0.856203973  0.464531988
     0.143795997  0.143795997  0.535467982
     0.535467982  0.143795997  0.143795997
     0.464531988  0.856203973  0.143795997
     0.464531988  0.143795997  0.856203973
     0.856203973  0.143795997  0.464531988
     0.356204003  0.356204003  0.035468001
     0.035468001  0.356204003  0.356204003
     0.143795997  0.535467982  0.143795997
     0.089059502  0.282544494  0.089059502
     0.910940528  0.717455506  0.089059502
     0.089059502  0.717455506  0.910940528
     0.910940528  0.089059502  0.717455506
     0.410940498  0.410940498  0.782544494
     0.782544494  0.410940498  0.410940498
     0.717455506  0.089059502  0.910940528
     0.717455506  0.910940528  0.089059502
     0.089059502  0.910940528  0.717455506
     0.089059502  0.089059502  0.282544494
     0.282544494  0.089059502  0.089059502
     0.410940498  0.782544494  0.410940498
     0.500000000  0.500000000  0.500000000
     0.818786502  0.818786502  0.818786502
     0.681213498  0.681213498  0.318786502
     0.318786502  0.681213498  0.681213498
     0.681213498  0.318786502  0.681213498
     0.856203973  0.535467982  0.856203973
     0.643796027  0.964532018  0.356204003
     0.356204003  0.964532018  0.643796027
     0.643796027  0.356204003  0.964532018
     0.643796027  0.643796027  0.035468001
     0.035468001  0.643796027  0.643796027
     0.964532018  0.356204003  0.643796027
     0.964532018  0.643796027  0.356204003
     0.356204003  0.643796027  0.964532018
     0.856203973  0.856203973  0.535467982
     0.535467982  0.856203973  0.856203973
     0.643796027  0.035468001  0.643796027
     0.589059472  0.782544494  0.589059472
     0.410940498  0.217455506  0.589059472
     0.589059472  0.217455506  0.410940498
     0.410940498  0.589059472  0.217455506
     0.910940528  0.910940528  0.282544494
     0.282544494  0.910940528  0.910940528
     0.217455506  0.589059472  0.410940498
     0.217455506  0.410940498  0.589059472
     0.589059472  0.410940498  0.217455506
     0.589059472  0.589059472  0.782544494
     0.782544494  0.589059472  0.589059472
     0.910940528  0.282544494  0.910940528

  ion indices of the primitive-cell ions
   primitive index   ion index
                 1           1
                 2           2
                 3           3
                 4           4
                 5           5
                 6           6
                 7           7
                 8           8
                 9           9
                10          10
                11          11
                12          12
                13          13
                14          14
                15          15
                16          16
                17          17
                18          18
                19          19
                20          20
                21          21
                22          22
                23          23
                24          24
                25          25
                26          26
                27          27
                28          28
                29          29
                30          30
                31          31
                32          32
                33          33
                34          34
                35          35
                36          36
                37          37
                38          38
                39          39
                40          40
                41          41
                42          42
                43          43
                44          44
                45          45
                46          46
                47          47
                48          48
                49          49
                50          50
                51          51
                52          52
                53          53
                54          54
                55          55
                56          56
                57          57
                58          58

----------------------------------------------------------------------------------------

 
 
 KPOINTS: Automatic generation                    

Automatic generation of k-mesh.
 Grid dimensions read from file:
 generate k-points for:    1    1    1

 Generating k-lattice:

  Cartesian coordinates                     Fractional coordinates (reciprocal lattice)
     0.116029500  0.000000000  0.000000000     1.000000000  0.000000000  0.000000000
     0.000000000  0.116029500  0.000000000     0.000000000  1.000000000  0.000000000
     0.000000000  0.000000000  0.116029500     0.000000000  0.000000000  1.000000000

  Length of vectors
     0.116029500  0.116029500  0.116029500

  Shift w.r.t. Gamma in fractional coordinates (k-lattice)
     0.000000000  0.000000000  0.000000000

 
 Subroutine IBZKPT returns following result:
 ===========================================
 
 Found      1 irreducible k-points:
 
 Following reciprocal coordinates:
            Coordinates               Weight
  0.000000  0.000000  0.000000      1.000000
 
 Following cartesian coordinates:
            Coordinates               Weight
  0.000000  0.000000  0.000000      1.000000
 


--------------------------------------------------------------------------------------------------------




 Dimension of arrays:
   k-points           NKPTS =      1   k-points in BZ     NKDIM =      1   number of bands    NBANDS=    512
   number of dos      NEDOS =    301   number of ions     NIONS =     58
   non local maximal  LDIM  =      6   non local SUM 2l+1 LMDIM =     18
   total plane-waves  NPLWV = 110592
   max r-space proj   IRMAX =   1827   max aug-charges    IRDMAX=   5441
   dimension x,y,z NGX =    48 NGY =   48 NGZ =   48
   dimension x,y,z NGXF=    96 NGYF=   96 NGZF=   96
   support grid    NGXF=    96 NGYF=   96 NGZF=   96
   ions per type =              58
   NGX,Y,Z   is equivalent  to a cutoff of   9.26,  9.26,  9.26 a.u.
   NGXF,Y,Z  is equivalent  to a cutoff of  18.52, 18.52, 18.52 a.u.

 SYSTEM =  MnBrNCH geometry relaxation             
 POSCAR =  Mn58                                    

 Startparameter for this run:
   NWRITE =      2    write-flag & timer
   PREC   = normal    normal or accurate (medium, high low for compatibility)
   ISTART =      0    job   : 0-new  1-cont  2-samecut
   ICHARG =      2    charge: 1-file 2-atom 10-const
   ISPIN  =      1    spin polarized calculation?
   LNONCOLLINEAR =      F non collinear calculations
   LSORBIT =      F    spin-orbit coupling
   INIWAV =      1    electr: 0-lowe 1-rand  2-diag
   LASPH  =      F    aspherical Exc in radial PAW
 Electronic Relaxation 1
   ENCUT  =  500.0 eV  36.75 Ry    6.06 a.u.  15.71 15.71 15.71*2*pi/ulx,y,z
   ENINI  =  500.0     initial cutoff
   ENAUG  =  569.1 eV  augmentation charge cutoff
   NELM   =   5000;   NELMIN=  2; NELMDL=-12     # of ELM steps 
   EDIFF  = 0.1E-05   stopping-criterion for ELM
   LREAL  =      T    real-space projection
   NLSPLINE    = F    spline interpolate recip. space projectors
   LCOMPAT=      F    compatible to vasp.4.4
   GGA_COMPAT  = T    GGA compatible to vasp.4.4-vasp.4.6
   LMAXPAW     = -100 max onsite density
   LMAXMIX     =    2 max onsite mixed and CHGCAR
   VOSKOWN=      0    Vosko Wilk Nusair interpolation
   ROPT   =   -0.00050
 Ionic relaxation
   EDIFFG = -.2E-01   stopping-criterion for IOM
   NSW    =  10000    number of steps for IOM
   NBLOCK =      1;   KBLOCK =  10000    inner block; outer block 
   IBRION =      2    ionic relax: 0-MD 1-quasi-New 2-CG
   NFREE  =      1    steps in history (QN), initial steepest desc. (CG)
   ISIF   =      2    stress and relaxation
   IWAVPR =     11    prediction:  0-non 1-charg 2-wave 3-comb
   ISYM   =      0    0-nonsym 1-usesym 2-fastsym
   LCORR  =      T    Harris-Foulkes like correction to forces

   POTIM  = 0.5000    time-step for ionic-motion
   TEIN   =    0.0    initial temperature
   TEBEG  =    0.0;   TEEND  =   0.0 temperature during run
   SMASS  =  -3.00    Nose mass-parameter (am)
   estimated Nose-frequenzy (Omega)   =  0.10E-29 period in steps = 0.13E+47 mass=  -0.170E-26a.u.
   SCALEE = 1.0000    scale energy and forces
   NPACO  =    256;   APACO  = 10.0  distance and # of slots for P.C.
   PSTRESS=    0.0 pullay stress

  Mass of Ions in am
   POMASS =  54.94
  Ionic Valenz
   ZVAL   =  13.00
  Atomic Wigner-Seitz radii
   RWIGS  =  -1.00
  virtual crystal weights 
   VCA    =   1.00
   NELECT =     754.0000    total number of electrons
   NUPDOWN=      -1.0000    fix difference up-down

 DOS related values:
   EMIN   =  10.00;   EMAX   =-10.00  energy-range for DOS
   EFERMI =   0.00
   ISMEAR =     0;   SIGMA  =   0.05  broadening in eV -4-tet -1-fermi 0-gaus

 Electronic relaxation 2 (details)
   IALGO  =     48    algorithm
   LDIAG  =      T    sub-space diagonalisation (order eigenvalues)
   LSUBROT=      F    optimize rotation matrix (better conditioning)
   TURBO    =      0    0=normal 1=particle mesh
   IRESTART =      0    0=no restart 2=restart with 2 vectors
   NREBOOT  =      0    no. of reboots
   NMIN     =      0    reboot dimension
   EREF     =   0.00    reference energy to select bands
   IMIX   =      4    mixing-type and parameters
     AMIX     =   0.40;   BMIX     =  1.00
     AMIX_MAG =   1.60;   BMIX_MAG =  1.00
     AMIN     =   0.10
     WC   =   100.;   INIMIX=   1;  MIXPRE=   1;  MAXMIX= -45

 Intra band minimization:
   WEIMIN = 0.0010     energy-eigenvalue tresh-hold
   EBREAK =  0.49E-09  absolut break condition
   DEPER  =   0.30     relativ break condition  

   TIME   =   0.40     timestep for ELM

  volume/ion in A,a.u.               =      11.04        74.48
  Fermi-wavevector in a.u.,A,eV,Ry     =   1.728889  3.267126 40.668578  2.989056
  Thomas-Fermi vector in A             =   2.803738
 
 Write flags
   LWAVE        =      T    write WAVECAR
   LDOWNSAMPLE  =      F    k-point downsampling of WAVECAR
   LCHARG       =      T    write CHGCAR
   LVTOT        =      F    write LOCPOT, total local potential
   LVHAR        =      F    write LOCPOT, Hartree potential only
   LELF         =      F    write electronic localiz. function (ELF)
   LORBIT       =      0    0 simple, 1 ext, 2 COOP (PROOUT), +10 PAW based schemes


 Dipole corrections
   LMONO  =      F    monopole corrections only (constant potential shift)
   LDIPOL =      F    correct potential (dipole corrections)
   IDIPOL =      0    1-x, 2-y, 3-z, 4-all directions 
   EPSILON=  1.0000000 bulk dielectric constant

 Exchange correlation treatment:
   GGA     =    PE    GGA type
   LEXCH   =     8    internal setting for exchange type
   LIBXC   =     F    Libxc                    
   VOSKOWN =     0    Vosko Wilk Nusair interpolation
   LHFCALC =     F    Hartree Fock is set to
   LHFONE  =     F    Hartree Fock one center treatment
   AEXX    =    0.0000 exact exchange contribution

 Linear response parameters
   LEPSILON=     F    determine dielectric tensor
   LRPA    =     F    only Hartree local field effects (RPA)
   LNABLA  =     F    use nabla operator in PAW spheres
   LVEL    =     F    velocity operator in full k-point grid
   CSHIFT  =0.1000    complex shift for real part using Kramers Kronig
   OMEGAMAX=  -1.0    maximum frequency
   DEG_THRESHOLD= 0.2000000E-02 threshold for treating states as degnerate
   RTIME   =   -0.100 relaxation time in fs
  (WPLASMAI=    0.000 imaginary part of plasma frequency in eV, 0.658/RTIME)
   DFIELD  = 0.0000000 0.0000000 0.0000000 field for delta impulse in time
 
  Optional k-point grid parameters
   LKPOINTS_OPT  =     F    use optional k-point grid
   KPOINTS_OPT_MODE=     1    mode for optional k-point grid
 
 Orbital magnetization related:
   ORBITALMAG=     F  switch on orbital magnetization
   LCHIMAG   =     F  perturbation theory with respect to B field
   DQ        =  0.001000  dq finite difference perturbation B field
   LLRAUG    =     F  two centre corrections for induced B field



--------------------------------------------------------------------------------------------------------


 conjugate gradient relaxation of ions
 charge density and potential will be updated during run
 non-spin polarized calculation
 RMM-DIIS sequential band-by-band
 perform sub-space diagonalisation
    before iterative eigenvector-optimisation
 modified Broyden-mixing scheme, WC =      100.0
 initial mixing is a Kerker type mixing with AMIX =  0.4000 and BMIX =      1.0000
 Hartree-type preconditioning will be used
 using additional bands          135
 real space projection scheme for non local part
 use partial core corrections
 calculate Harris-corrections to forces 
   (improved forces if not selfconsistent)
 use gradient corrections 
 use of overlap-Matrix (Vanderbilt PP)
 Gauss-broadening in eV      SIGMA  =   0.05


--------------------------------------------------------------------------------------------------------


  energy-cutoff  :      500.00
  volume of cell :      640.17
      direct lattice vectors                 reciprocal lattice vectors
     8.618497849  0.000000000  0.000000000     0.116029500  0.000000000  0.000000000
     0.000000000  8.618497849  0.000000000     0.000000000  0.116029500  0.000000000
     0.000000000  0.000000000  8.618497849     0.000000000  0.000000000  0.116029500

  length of vectors
     8.618497849  8.618497849  8.618497849     0.116029500  0.116029500  0.116029500


 
 k-points in units of 2pi/SCALE and weight: Automatic generation                    
   0.00000000  0.00000000  0.00000000       1.000
 
 k-points in reciprocal lattice and weights: Automatic generation                    
   0.00000000  0.00000000  0.00000000       1.000
 
 position of ions in fractional coordinates (direct lattice) 
   0.00000000  0.00000000  0.00000000
   0.31878650  0.31878650  0.31878650
   0.18121350  0.18121350  0.81878650
   0.81878650  0.18121350  0.18121350
   0.18121350  0.81878650  0.18121350
   0.35620400  0.03546800  0.35620400
   0.14379600  0.46453199  0.85620397
   0.85620397  0.46453199  0.14379600
   0.14379600  0.85620397  0.46453199
   0.14379600  0.14379600  0.53546798
   0.53546798  0.14379600  0.14379600
   0.46453199  0.85620397  0.14379600
   0.46453199  0.14379600  0.85620397
   0.85620397  0.14379600  0.46453199
   0.35620400  0.35620400  0.03546800
   0.03546800  0.35620400  0.35620400
   0.14379600  0.53546798  0.14379600
   0.08905950  0.28254449  0.08905950
   0.91094053  0.71745551  0.08905950
   0.08905950  0.71745551  0.91094053
   0.91094053  0.08905950  0.71745551
   0.41094050  0.41094050  0.78254449
   0.78254449  0.41094050  0.41094050
   0.71745551  0.08905950  0.91094053
   0.71745551  0.91094053  0.08905950
   0.08905950  0.91094053  0.71745551
   0.08905950  0.08905950  0.28254449
   0.28254449  0.08905950  0.08905950
   0.41094050  0.78254449  0.41094050
   0.50000000  0.50000000  0.50000000
   0.81878650  0.81878650  0.81878650
   0.68121350  0.68121350  0.31878650
   0.31878650  0.68121350  0.68121350
   0.68121350  0.31878650  0.68121350
   0.85620397  0.53546798  0.85620397
   0.64379603  0.96453202  0.35620400
   0.35620400  0.96453202  0.64379603
   0.64379603  0.35620400  0.96453202
   0.64379603  0.64379603  0.03546800
   0.03546800  0.64379603  0.64379603
   0.96453202  0.35620400  0.64379603
   0.96453202  0.64379603  0.35620400
   0.35620400  0.64379603  0.96453202
   0.85620397  0.85620397  0.53546798
   0.53546798  0.85620397  0.85620397
   0.64379603  0.03546800  0.64379603
   0.58905947  0.78254449  0.58905947
   0.41094050  0.21745551  0.58905947
   0.58905947  0.21745551  0.41094050
   0.41094050  0.58905947  0.21745551
   0.91094053  0.91094053  0.28254449
   0.28254449  0.91094053  0.91094053
   0.21745551  0.58905947  0.41094050
   0.21745551  0.41094050  0.58905947
   0.58905947  0.41094050  0.21745551
   0.58905947  0.58905947  0.78254449
   0.78254449  0.58905947  0.58905947
   0.91094053  0.28254449  0.91094053
 
 position of ions in cartesian coordinates  (Angst):
   0.00000000  0.00000000  0.00000000
   2.74746078  2.74746078  2.74746078
   1.56178814  1.56178814  7.05670970
   7.05670970  1.56178814  1.56178814
   1.56178814  7.05670970  1.56178814
   3.06994343  0.30568089  3.06994343
   1.23930549  4.00356794  7.37919210
   7.37919210  4.00356794  1.23930549
   1.23930549  7.37919210  4.00356794
   1.23930549  1.23930549  4.61492965
   4.61492965  1.23930549  1.23930549
   4.00356794  7.37919210  1.23930549
   4.00356794  1.23930549  7.37919210
   7.37919210  1.23930549  4.00356794
   3.06994343  3.06994343  0.30568089
   0.30568089  3.06994343  3.06994343
   1.23930549  4.61492965  1.23930549
   0.76755912  2.43510911  0.76755912
   7.85093898  6.18338874  0.76755912
   0.76755912  6.18338874  7.85093898
   7.85093898  0.76755912  6.18338874
   3.54168980  3.54168980  6.74435803
   6.74435803  3.54168980  3.54168980
   6.18338874  0.76755912  7.85093898
   6.18338874  7.85093898  0.76755912
   0.76755912  7.85093898  6.18338874
   0.76755912  0.76755912  2.43510911
   2.43510911  0.76755912  0.76755912
   3.54168980  6.74435803  3.54168980
   4.30924892  4.30924892  4.30924892
   7.05670970  7.05670970  7.05670970
   5.87103707  5.87103707  2.74746078
   2.74746078  5.87103707  5.87103707
   5.87103707  2.74746078  5.87103707
   7.37919210  4.61492965  7.37919210
   5.54855467  8.31281712  3.06994343
   3.06994343  8.31281712  5.54855467
   5.54855467  3.06994343  8.31281712
   5.54855467  5.54855467  0.30568089
   0.30568089  5.54855467  5.54855467
   8.31281712  3.06994343  5.54855467
   8.31281712  5.54855467  3.06994343
   3.06994343  5.54855467  8.31281712
   7.37919210  7.37919210  4.61492965
   4.61492965  7.37919210  7.37919210
   5.54855467  0.30568089  5.54855467
   5.07680779  6.74435803  5.07680779
   3.54168980  1.87413981  5.07680779
   5.07680779  1.87413981  3.54168980
   3.54168980  5.07680779  1.87413981
   7.85093898  7.85093898  2.43510911
   2.43510911  7.85093898  7.85093898
   1.87413981  5.07680779  3.54168980
   1.87413981  3.54168980  5.07680779
   5.07680779  3.54168980  1.87413981
   5.07680779  5.07680779  6.74435803
   6.74435803  5.07680779  5.07680779
   7.85093898  2.43510911  7.85093898
 


--------------------------------------------------------------------------------------------------------


 k-point   1 :   0.0000 0.0000 0.0000  plane waves:   16279

 maximum and minimum number of plane-waves per node :      4081     4062

 maximum number of plane-waves:     16279
 maximum index in each direction: 
   IXMAX=   15   IYMAX=   15   IZMAX=   15
   IXMIN=  -15   IYMIN=  -15   IZMIN=  -15


 real space projection operators:
  total allocation   :      14103.84 KBytes
  max/ min on nodes  :       3539.25       3500.72


 parallel 3D FFT for wavefunctions:
    minimum data exchange during FFTs selected (reduces bandwidth)
 parallel 3D FFT for charge:
    minimum data exchange during FFTs selected (reduces bandwidth)


 total amount of memory used by VASP MPI-rank0    39413. kBytes
=======================================================================

   base      :      30000. kBytes
   nonlr-proj:       6079. kBytes
   fftplans  :       1252. kBytes
   grid      :       1563. kBytes
   one-center:        233. kBytes
   wavefun   :        286. kBytes
 
     INWAV:  cpu time      0.0001: real time      0.0001
 Broyden mixing: mesh for mixing (old mesh)
   NGX = 31   NGY = 31   NGZ = 31
  (NGX  = 96   NGY  = 96   NGZ  = 96)
  gives a total of  29791 points

 initial charge density was supplied:
 charge density of overlapping atoms calculated
 number of electron     754.0000000 magnetization 
 keeping initial charge density in first step


--------------------------------------------------------------------------------------------------------


 Maximum index for non-local projection operator          443
 Maximum index for augmentation-charges          357 (set IRDMAX)


--------------------------------------------------------------------------------------------------------


 First call to EWALD:  gamma=   0.206
 Maximum number of real-space cells 3x 3x 3
 Maximum number of reciprocal cells 3x 3x 3

    FEWALD:  cpu time      0.0105: real time      0.0115


--------------------------------------- Iteration      1(   1)  ---------------------------------------


    POTLOK:  cpu time      0.0768: real time      0.0889
    SETDIJ:  cpu time      0.0222: real time      0.0223
    EDDIAG:  cpu time      0.9484: real time      0.9842
  RMM-DIIS:  cpu time      0.0805: real time      0.0840
    ORTHCH:  cpu time      0.1148: real time      0.1148
       DOS:  cpu time      0.0049: real time      0.0049
    --------------------------------------------
      LOOP:  cpu time      1.2476: real time      1.2992

 eigenvalue-minimisations  :   512
 total energy-change (2. order) :-0.1982977E+03  (-0.4506795E+05)
 number of electron     754.0000000 magnetization 
 augmentation part      754.0000000 magnetization 

 Free energy of the ion-electron system (eV)
  ---------------------------------------------------
  alpha Z        PSCENC =      6336.68346171
  Ewald energy   TEWEN  =    -91265.47543856
  -Hartree energ DENC   =    -25995.99488509
  -exchange      EXHF   =         0.00000000
  -V(xc)+E(xc)   XCENC  =      4028.05575598
  PAW double counting   =     95485.51912352   -98429.01277108
  entropy T*S    EENTRO =        -0.05813094
  eigenvalues    EBANDS =     -7823.10826212
  atomic energy  EATOM  =    117465.09339752
  Solvation  Ediel_sol  =         0.00000000
  ---------------------------------------------------
  free energy    TOTEN  =      -198.29774905 eV

  energy without entropy =     -198.23961812  energy(sigma->0) =     -198.26868359


--------------------------------------------------------------------------------------------------------




--------------------------------------- Iteration      1(   2)  ---------------------------------------


    EDDIAG:  cpu time      0.5949: real time      0.6111
  RMM-DIIS:  cpu time      0.0533: real time      0.0533
    ORTHCH:  cpu time      0.1085: real time      0.1063
       DOS:  cpu time      0.0022: real time      0.0022
    --------------------------------------------
      LOOP:  cpu time      0.7591: real time      0.7730

 eigenvalue-minimisations  :   512
 total energy-change (2. order) :-0.4700860E+03  (-0.7867019E+04)
 number of electron     754.0000000 magnetization 
 augmentation part      754.0000000 magnetization 

 Free energy of the ion-electron system (eV)
  ---------------------------------------------------
  alpha Z        PSCENC =      6336.68346171
  Ewald energy   TEWEN  =    -91265.47543856
  -Hartree energ DENC   =    -25995.99488509
  -exchange      EXHF   =         0.00000000
  -V(xc)+E(xc)   XCENC  =      4028.05575598
  PAW double counting   =     95485.51912352   -98429.01277108
  entropy T*S    EENTRO =        -0.10440078
  eigenvalues    EBANDS =     -8293.14795566
  atomic energy  EATOM  =    117465.09339752
  Solvation  Ediel_sol  =         0.00000000
  ---------------------------------------------------
  free energy    TOTEN  =      -668.38371243 eV

  energy without entropy =     -668.27931165  energy(sigma->0) =     -668.33151204


--------------------------------------------------------------------------------------------------------




--------------------------------------- Iteration      1(   3)  ---------------------------------------


    EDDIAG:  cpu time      0.6289: real time      0.6444
  RMM-DIIS:  cpu time      0.0495: real time      0.0502
    ORTHCH:  cpu time      0.1793: real time      0.1772
       DOS:  cpu time      0.0048: real time      0.0048
    --------------------------------------------
      LOOP:  cpu time      0.8623: real time      0.8763

 eigenvalue-minimisations  :   512
 total energy-change (2. order) : 0.4063889E+03  (-0.7765828E+03)
 number of electron     754.0000000 magnetization 
 augmentation part      754.0000000 magnetization 

 Free energy of the ion-electron system (eV)
  ---------------------------------------------------
  alpha Z        PSCENC =      6336.68346171
  Ewald energy   TEWEN  =    -91265.47543856
  -Hartree energ DENC   =    -25995.99488509
  -exchange      EXHF   =         0.00000000
  -V(xc)+E(xc)   XCENC  =      4028.05575598
  PAW double counting   =     95485.51912352   -98429.01277108
  entropy T*S    EENTRO =        -0.17341312
  eigenvalues    EBANDS =     -7886.69000802
  atomic energy  EATOM  =    117465.09339752
  Solvation  Ediel_sol  =         0.00000000
  ---------------------------------------------------
  free energy    TOTEN  =      -261.99477714 eV

  energy without entropy =     -261.82136401  energy(sigma->0) =     -261.90807057


--------------------------------------------------------------------------------------------------------




--------------------------------------- Iteration      1(   4)  ---------------------------------------


    EDDIAG:  cpu time      0.7398: real time      0.7563
  RMM-DIIS:  cpu time      0.0502: real time      0.0502
    ORTHCH:  cpu time      0.1055: real time      0.1034
       DOS:  cpu time      0.0023: real time      0.0023
    --------------------------------------------
      LOOP:  cpu time      0.8978: real time      0.9121

 eigenvalue-minimisations  :   512
 total energy-change (2. order) :-0.2794048E+03  (-0.1798573E+03)
 number of electron     754.0000000 magnetization 
 augmentation part      754.0000000 magnetization 

 Free energy of the ion-electron system (eV)
  ---------------------------------------------------
  alpha Z        PSCENC =      6336.68346171
  Ewald energy   TEWEN  =    -91265.47543856
  -Hartree energ DENC   =    -25995.99488509
  -exchange      EXHF   =         0.00000000
  -V(xc)+E(xc)   XCENC  =      4028.05575598
  PAW double counting   =     95485.51912352   -98429.01277108
  entropy T*S    EENTRO =        -0.05450472
  eigenvalues    EBANDS =     -8166.21375684
  atomic energy  EATOM  =    117465.09339752
  Solvation  Ediel_sol  =         0.00000000
  ---------------------------------------------------
  free energy    TOTEN  =      -541.39961755 eV

  energy without entropy =     -541.34511283  energy(sigma->0) =     -541.37236519


--------------------------------------------------------------------------------------------------------




--------------------------------------- Iteration      1(   5)  ---------------------------------------


    EDDIAG:  cpu time      0.5684: real time      0.5865
  RMM-DIIS:  cpu time      0.0487: real time      0.0487
    ORTHCH:  cpu time      0.1052: real time      0.1047
       DOS:  cpu time      0.0021: real time      0.0021
    --------------------------------------------
      LOOP:  cpu time      0.7245: real time      0.7420

 eigenvalue-minimisations  :   512
 total energy-change (2. order) :-0.5949149E+02  (-0.4993685E+02)
 number of electron     754.0000000 magnetization 
 augmentation part      754.0000000 magnetization 

 Free energy of the ion-electron system (eV)
  ---------------------------------------------------
  alpha Z        PSCENC =      6336.68346171
  Ewald energy   TEWEN  =    -91265.47543856
  -Hartree energ DENC   =    -25995.99488509
  -exchange      EXHF   =         0.00000000
  -V(xc)+E(xc)   XCENC  =      4028.05575598
  PAW double counting   =     95485.51912352   -98429.01277108
  entropy T*S    EENTRO =        -0.08797663
  eigenvalues    EBANDS =     -8225.67177083
  atomic energy  EATOM  =    117465.09339752
  Solvation  Ediel_sol  =         0.00000000
  ---------------------------------------------------
  free energy    TOTEN  =      -600.89110345 eV

  energy without entropy =     -600.80312682  energy(sigma->0) =     -600.84711514


--------------------------------------------------------------------------------------------------------




--------------------------------------- Iteration      1(   6)  ---------------------------------------


    EDDIAG:  cpu time      0.6078: real time      0.6240
  RMM-DIIS:  cpu time      0.0508: real time      0.0508
    ORTHCH:  cpu time      0.1012: real time      0.0995
       DOS:  cpu time      0.0021: real time      0.0021
    --------------------------------------------
      LOOP:  cpu time      0.7620: real time      0.7764

 eigenvalue-minimisations  :   512
 total energy-change (2. order) :-0.1416165E+02  (-0.1331465E+02)
 number of electron     754.0000000 magnetization 
 augmentation part      754.0000000 magnetization 

 Free energy of the ion-electron system (eV)
  ---------------------------------------------------
  alpha Z        PSCENC =      6336.68346171
  Ewald energy   TEWEN  =    -91265.47543856
  -Hartree energ DENC   =    -25995.99488509
  -exchange      EXHF   =         0.00000000
  -V(xc)+E(xc)   XCENC  =      4028.05575598
  PAW double counting   =     95485.51912352   -98429.01277108
  entropy T*S    EENTRO =        -0.10999012
  eigenvalues    EBANDS =     -8239.81140725
  atomic energy  EATOM  =    117465.09339752
  Solvation  Ediel_sol  =         0.00000000
  ---------------------------------------------------
  free energy    TOTEN  =      -615.05275336 eV

  energy without entropy =     -614.94276324  energy(sigma->0) =     -614.99775830


--------------------------------------------------------------------------------------------------------




--------------------------------------- Iteration      1(   7)  ---------------------------------------


    EDDIAG:  cpu time      0.5740: real time      0.5751
  RMM-DIIS:  cpu time      0.0493: real time      0.0493
    ORTHCH:  cpu time      0.1195: real time      0.1182
       DOS:  cpu time      0.0032: real time      0.0032
    --------------------------------------------
      LOOP:  cpu time      0.7460: real time      0.7458

 eigenvalue-minimisations  :   512
 total energy-change (2. order) :-0.4391754E+01  (-0.4332937E+01)
 number of electron     754.0000000 magnetization 
 augmentation part      754.0000000 magnetization 

 Free energy of the ion-electron system (eV)
  ---------------------------------------------------
  alpha Z        PSCENC =      6336.68346171
  Ewald energy   TEWEN  =    -91265.47543856
  -Hartree energ DENC   =    -25995.99488509
  -exchange      EXHF   =         0.00000000
  -V(xc)+E(xc)   XCENC  =      4028.05575598
  PAW double counting   =     95485.51912352   -98429.01277108
  entropy T*S    EENTRO =        -0.10809021
  eigenvalues    EBANDS =     -8244.20506148
  atomic energy  EATOM  =    117465.09339752
  Solvation  Ediel_sol  =         0.00000000
  ---------------------------------------------------
  free energy    TOTEN  =      -619.44450768 eV

  energy without entropy =     -619.33641747  energy(sigma->0) =     -619.39046257


--------------------------------------------------------------------------------------------------------




--------------------------------------- Iteration      1(   8)  ---------------------------------------


    EDDIAG:  cpu time      0.6217: real time      0.6377
  RMM-DIIS:  cpu time      0.0551: real time      0.0552
    ORTHCH:  cpu time      0.1047: real time      0.1025
       DOS:  cpu time      0.0023: real time      0.0023
    --------------------------------------------
      LOOP:  cpu time      0.7838: real time      0.7977

 eigenvalue-minimisations  :   512
 total energy-change (2. order) :-0.1389990E+01  (-0.1452020E+01)
 number of electron     754.0000000 magnetization 
 augmentation part      754.0000000 magnetization 

 Free energy of the ion-electron system (eV)
  ---------------------------------------------------
  alpha Z        PSCENC =      6336.68346171
  Ewald energy   TEWEN  =    -91265.47543856
  -Hartree energ DENC   =    -25995.99488509
  -exchange      EXHF   =         0.00000000
  -V(xc)+E(xc)   XCENC  =      4028.05575598
  PAW double counting   =     95485.51912352   -98429.01277108
  entropy T*S    EENTRO =        -0.10682738
  eigenvalues    EBANDS =     -8245.59631463
  atomic energy  EATOM  =    117465.09339752
  Solvation  Ediel_sol  =         0.00000000
  ---------------------------------------------------
  free energy    TOTEN  =      -620.83449800 eV

  energy without entropy =     -620.72767062  energy(sigma->0) =     -620.78108431


--------------------------------------------------------------------------------------------------------




--------------------------------------- Iteration      1(   9)  ---------------------------------------


    EDDIAG:  cpu time      0.5614: real time      0.5777
  RMM-DIIS:  cpu time      0.1444: real time      0.1581
    ORTHCH:  cpu time      0.0871: real time      0.0871
       DOS:  cpu time      0.0021: real time      0.0021
    --------------------------------------------
      LOOP:  cpu time      0.7950: real time      0.8250

 eigenvalue-minimisations  :  1298
 total energy-change (2. order) :-0.3985177E+00  (-0.4625533E+00)
 number of electron     754.0000000 magnetization 
 augmentation part      754.0000000 magnetization 

 Free energy of the ion-electron system (eV)
  ---------------------------------------------------
  alpha Z        PSCENC =      6336.68346171
  Ewald energy   TEWEN  =    -91265.47543856
  -Hartree energ DENC   =    -25995.99488509
  -exchange      EXHF   =         0.00000000
  -V(xc)+E(xc)   XCENC  =      4028.05575598
  PAW double counting   =     95485.51912352   -98429.01277108
  entropy T*S    EENTRO =        -0.10669919
  eigenvalues    EBANDS =     -8245.99496052
  atomic energy  EATOM  =    117465.09339752
  Solvation  Ediel_sol  =         0.00000000
  ---------------------------------------------------
  free energy    TOTEN  =      -621.23301570 eV

  energy without entropy =     -621.12631651  energy(sigma->0) =     -621.17966611


--------------------------------------------------------------------------------------------------------




--------------------------------------- Iteration      1(  10)  ---------------------------------------


    EDDIAG:  cpu time      0.5643: real time      0.5806
  RMM-DIIS:  cpu time      0.1200: real time      0.1180
    ORTHCH:  cpu time      0.0863: real time      0.0862
       DOS:  cpu time      0.0022: real time      0.0022
    --------------------------------------------
      LOOP:  cpu time      0.7728: real time      0.7871

 eigenvalue-minimisations  :  1213
 total energy-change (2. order) :-0.1917533E+00  (-0.1827015E+00)
 number of electron     754.0000000 magnetization 
 augmentation part      754.0000000 magnetization 

 Free energy of the ion-electron system (eV)
  ---------------------------------------------------
  alpha Z        PSCENC =      6336.68346171
  Ewald energy   TEWEN  =    -91265.47543856
  -Hartree energ DENC   =    -25995.99488509
  -exchange      EXHF   =         0.00000000
  -V(xc)+E(xc)   XCENC  =      4028.05575598
  PAW double counting   =     95485.51912352   -98429.01277108
  entropy T*S    EENTRO =        -0.10680416
  eigenvalues    EBANDS =     -8246.18660881
  atomic energy  EATOM  =    117465.09339752
  Solvation  Ediel_sol  =         0.00000000
  ---------------------------------------------------
  free energy    TOTEN  =      -621.42476896 eV

  energy without entropy =     -621.31796480  energy(sigma->0) =     -621.37136688


--------------------------------------------------------------------------------------------------------




--------------------------------------- Iteration      1(  11)  ---------------------------------------


    EDDIAG:  cpu time      0.6392: real time      0.6550
  RMM-DIIS:  cpu time      0.1170: real time      0.1148
    ORTHCH:  cpu time      0.2115: real time      0.2115
       DOS:  cpu time      0.0120: real time      0.0120
    --------------------------------------------
      LOOP:  cpu time      0.9798: real time      0.9933

 eigenvalue-minimisations  :  1150
 total energy-change (2. order) :-0.3396484E-01  (-0.2762219E-01)
 number of electron     754.0000000 magnetization 
 augmentation part      754.0000000 magnetization 

 Free energy of the ion-electron system (eV)
  ---------------------------------------------------
  alpha Z        PSCENC =      6336.68346171
  Ewald energy   TEWEN  =    -91265.47543856
  -Hartree energ DENC   =    -25995.99488509
  -exchange      EXHF   =         0.00000000
  -V(xc)+E(xc)   XCENC  =      4028.05575598
  PAW double counting   =     95485.51912352   -98429.01277108
  entropy T*S    EENTRO =        -0.10676928
  eigenvalues    EBANDS =     -8246.22060852
  atomic energy  EATOM  =    117465.09339752
  Solvation  Ediel_sol  =         0.00000000
  ---------------------------------------------------
  free energy    TOTEN  =      -621.45873379 eV

  energy without entropy =     -621.35196451  energy(sigma->0) =     -621.40534915


--------------------------------------------------------------------------------------------------------




--------------------------------------- Iteration      1(  12)  ---------------------------------------


    EDDIAG:  cpu time      0.6364: real time      0.6534
  RMM-DIIS:  cpu time      0.1232: real time      0.1216
    ORTHCH:  cpu time      0.0874: real time      0.0900
       DOS:  cpu time      0.0022: real time      0.0022
    CHARGE:  cpu time      0.0233: real time      0.0237
    MIXING:  cpu time      0.0053: real time      0.0056
    --------------------------------------------
      LOOP:  cpu time      0.8779: real time      0.8964

 eigenvalue-minimisations  :  1251
 total energy-change (2. order) :-0.3680630E-02  (-0.2968088E-02)
 number of electron     754.0001640 magnetization 
 augmentation part      385.5996840 magnetization 

 Broyden mixing:
  rms(total) = 0.10208E+02    rms(broyden)= 0.10207E+02
  rms(prec ) = 0.12582E+02
  weight for this iteration     100.00

 Free energy of the ion-electron system (eV)
  ---------------------------------------------------
  alpha Z        PSCENC =      6336.68346171
  Ewald energy   TEWEN  =    -91265.47543856
  -Hartree energ DENC   =    -25995.99488509
  -exchange      EXHF   =         0.00000000
  -V(xc)+E(xc)   XCENC  =      4028.05575598
  PAW double counting   =     95485.51912352   -98429.01277108
  entropy T*S    EENTRO =        -0.10676962
  eigenvalues    EBANDS =     -8246.22428881
  atomic energy  EATOM  =    117465.09339752
  Solvation  Ediel_sol  =         0.00000000
  ---------------------------------------------------
  free energy    TOTEN  =      -621.46241442 eV

  energy without entropy =     -621.35564481  energy(sigma->0) =     -621.40902962


--------------------------------------------------------------------------------------------------------




--------------------------------------- Iteration      1(  13)  ---------------------------------------


    POTLOK:  cpu time      0.0596: real time      0.0749
    SETDIJ:  cpu time      0.0161: real time      0.0161
    EDDIAG:  cpu time      0.5573: real time      0.5580
  RMM-DIIS:  cpu time      0.1609: real time      0.1572
    ORTHCH:  cpu time      0.0873: real time      0.0873
       DOS:  cpu time      0.0021: real time      0.0021
    CHARGE:  cpu time      0.0195: real time      0.0195
    MIXING:  cpu time      0.0070: real time      0.0174
    --------------------------------------------
      LOOP:  cpu time      0.9098: real time      0.9326

 eigenvalue-minimisations  :  1784
 total energy-change (2. order) :-0.8247087E+02  (-0.1097684E+03)
 number of electron     754.0001856 magnetization 
 augmentation part      429.0917376 magnetization 

 Broyden mixing:
  rms(total) = 0.16126E+02    rms(broyden)= 0.16125E+02
  rms(prec ) = 0.22910E+02
  weight for this iteration     100.00

 eigenvalues of (default mixing * dielectric matrix)
  average eigenvalue GAMMA=   0.3207
  0.3207

 Free energy of the ion-electron system (eV)
  ---------------------------------------------------
  alpha Z        PSCENC =      6336.68346171
  Ewald energy   TEWEN  =    -91265.47543856
  -Hartree energ DENC   =    -23797.05793097
  -exchange      EXHF   =         0.00000000
  -V(xc)+E(xc)   XCENC  =      3920.24296085
  PAW double counting   =    100306.18240761  -103224.64033452
  entropy T*S    EENTRO =        -0.10307067
  eigenvalues    EBANDS =    -10444.85873657
  atomic energy  EATOM  =    117465.09339752
  Solvation  Ediel_sol  =         0.00000000
  ---------------------------------------------------
  free energy    TOTEN  =      -703.93328359 eV

  energy without entropy =     -703.83021291  energy(sigma->0) =     -703.88174825


--------------------------------------------------------------------------------------------------------




--------------------------------------- Iteration      1(  14)  ---------------------------------------


    POTLOK:  cpu time      0.0726: real time      0.0728
    SETDIJ:  cpu time      0.0181: real time      0.0181
    EDDIAG:  cpu time      0.5593: real time      0.5601
  RMM-DIIS:  cpu time      0.1592: real time      0.1557
    ORTHCH:  cpu time      0.0901: real time      0.0901
       DOS:  cpu time      0.0023: real time      0.0023
    CHARGE:  cpu time      0.0196: real time      0.0196
    MIXING:  cpu time      0.0030: real time      0.0058
    --------------------------------------------
      LOOP:  cpu time      0.9242: real time      0.9244

 eigenvalue-minimisations  :  1708
 total energy-change (2. order) : 0.1113212E+03  (-0.2053474E+02)
 number of electron     754.0001665 magnetization 
 augmentation part      425.5440887 magnetization 

 Broyden mixing:
  rms(total) = 0.10986E+02    rms(broyden)= 0.10985E+02
  rms(prec ) = 0.17453E+02
  weight for this iteration     100.00

 eigenvalues of (default mixing * dielectric matrix)
  average eigenvalue GAMMA=   0.5255
  0.8731  0.1780

 Free energy of the ion-electron system (eV)
  ---------------------------------------------------
  alpha Z        PSCENC =      6336.68346171
  Ewald energy   TEWEN  =    -91265.47543856
  -Hartree energ DENC   =    -23886.95223128
  -exchange      EXHF   =         0.00000000
  -V(xc)+E(xc)   XCENC  =      3926.99289219
  PAW double counting   =    101836.21543618  -104799.16991140
  entropy T*S    EENTRO =        -0.26874568
  eigenvalues    EBANDS =    -10205.73091746
  atomic energy  EATOM  =    117465.09339752
  Solvation  Ediel_sol  =         0.00000000
  ---------------------------------------------------
  free energy    TOTEN  =      -592.61205677 eV

  energy without entropy =     -592.34331109  energy(sigma->0) =     -592.47768393


--------------------------------------------------------------------------------------------------------




--------------------------------------- Iteration      1(  15)  ---------------------------------------


    POTLOK:  cpu time      0.0721: real time      0.0723
    SETDIJ:  cpu time      0.0162: real time      0.0161
    EDDIAG:  cpu time      0.6483: real time      0.6489
  RMM-DIIS:  cpu time      0.1680: real time      0.1646
    ORTHCH:  cpu time      0.0885: real time      0.0885
       DOS:  cpu time      0.0022: real time      0.0022
    CHARGE:  cpu time      0.0196: real time      0.0196
    MIXING:  cpu time      0.0018: real time      0.0018
    --------------------------------------------
      LOOP:  cpu time      1.0167: real time      1.0141

 eigenvalue-minimisations  :  1802
 total energy-change (2. order) : 0.4863114E+02  (-0.1120988E+02)
 number of electron     754.0001765 magnetization 
 augmentation part      416.5720637 magnetization 

 Broyden mixing:
  rms(total) = 0.66655E+01    rms(broyden)= 0.66645E+01
  rms(prec ) = 0.10731E+02
  weight for this iteration     100.00

 eigenvalues of (default mixing * dielectric matrix)
  average eigenvalue GAMMA=   0.5253
  0.9534  0.4758  0.1468

 Free energy of the ion-electron system (eV)
  ---------------------------------------------------
  alpha Z        PSCENC =      6336.68346171
  Ewald energy   TEWEN  =    -91265.47543856
  -Hartree energ DENC   =    -24152.78821691
  -exchange      EXHF   =         0.00000000
  -V(xc)+E(xc)   XCENC  =      3939.09929247
  PAW double counting   =    104725.30460469  -107778.55609102
  entropy T*S    EENTRO =        -0.08297207
  eigenvalues    EBANDS =     -9813.25895264
  atomic energy  EATOM  =    117465.09339752
  Solvation  Ediel_sol  =         0.00000000
  ---------------------------------------------------
  free energy    TOTEN  =      -543.98091480 eV

  energy without entropy =     -543.89794273  energy(sigma->0) =     -543.93942877


--------------------------------------------------------------------------------------------------------




--------------------------------------- Iteration      1(  16)  ---------------------------------------


    POTLOK:  cpu time      0.0563: real time      0.0723
    SETDIJ:  cpu time      0.0160: real time      0.0160
    EDDIAG:  cpu time      0.5806: real time      0.5813
  RMM-DIIS:  cpu time      0.1500: real time      0.1471
    ORTHCH:  cpu time      0.0905: real time      0.0905
       DOS:  cpu time      0.0022: real time      0.0022
    CHARGE:  cpu time      0.0193: real time      0.0193
    MIXING:  cpu time      0.0018: real time      0.0018
    --------------------------------------------
      LOOP:  cpu time      0.9167: real time      0.9306

 eigenvalue-minimisations  :  1637
 total energy-change (2. order) : 0.2176320E+01  (-0.2896807E+01)
 number of electron     754.0001567 magnetization 
 augmentation part      417.2976755 magnetization 

 Broyden mixing:
  rms(total) = 0.66147E+01    rms(broyden)= 0.66138E+01
  rms(prec ) = 0.10353E+02
  weight for this iteration     100.00

 eigenvalues of (default mixing * dielectric matrix)
  average eigenvalue GAMMA=   0.4407
  0.9831  0.5084  0.1514  0.1197

 Free energy of the ion-electron system (eV)
  ---------------------------------------------------
  alpha Z        PSCENC =      6336.68346171
  Ewald energy   TEWEN  =    -91265.47543856
  -Hartree energ DENC   =    -24080.69612321
  -exchange      EXHF   =         0.00000000
  -V(xc)+E(xc)   XCENC  =      3935.96713479
  PAW double counting   =    105374.89662937  -108445.91955777
  entropy T*S    EENTRO =        -0.18048623
  eigenvalues    EBANDS =     -9862.17361244
  atomic energy  EATOM  =    117465.09339752
  Solvation  Ediel_sol  =         0.00000000
  ---------------------------------------------------
  free energy    TOTEN  =      -541.80459480 eV

  energy without entropy =     -541.62410858  energy(sigma->0) =     -541.71435169


--------------------------------------------------------------------------------------------------------




--------------------------------------- Iteration      1(  17)  ---------------------------------------


    POTLOK:  cpu time      0.0721: real time      0.0722
    SETDIJ:  cpu time      0.0154: real time      0.0154
    EDDIAG:  cpu time      0.6075: real time      0.6081
  RMM-DIIS:  cpu time      0.1528: real time      0.1496
    ORTHCH:  cpu time      0.1252: real time      0.1252
       DOS:  cpu time      0.0039: real time      0.0039
    CHARGE:  cpu time      0.0219: real time      0.0219
    MIXING:  cpu time      0.0043: real time      0.0071
    --------------------------------------------
      LOOP:  cpu time      1.0029: real time      1.0035

 eigenvalue-minimisations  :  1620
 total energy-change (2. order) : 0.2126838E+02  (-0.1503423E+01)
 number of electron     754.0001754 magnetization 
 augmentation part      415.9217498 magnetization 

 Broyden mixing:
  rms(total) = 0.16785E+01    rms(broyden)= 0.16778E+01
  rms(prec ) = 0.19695E+01
  weight for this iteration     100.00

 eigenvalues of (default mixing * dielectric matrix)
  average eigenvalue GAMMA=   0.4314
  0.9811  0.4533  0.4533  0.1539  0.1153

 Free energy of the ion-electron system (eV)
  ---------------------------------------------------
  alpha Z        PSCENC =      6336.68346171
  Ewald energy   TEWEN  =    -91265.47543856
  -Hartree energ DENC   =    -24034.91196490
  -exchange      EXHF   =         0.00000000
  -V(xc)+E(xc)   XCENC  =      3934.03168203
  PAW double counting   =    105745.68356016  -108826.22451976
  entropy T*S    EENTRO =        -0.17217621
  eigenvalues    EBANDS =     -9875.24421394
  atomic energy  EATOM  =    117465.09339752
  Solvation  Ediel_sol  =         0.00000000
  ---------------------------------------------------
  free energy    TOTEN  =      -520.53621195 eV

  energy without entropy =     -520.36403574  energy(sigma->0) =     -520.45012384


--------------------------------------------------------------------------------------------------------




--------------------------------------- Iteration      1(  18)  ---------------------------------------


    POTLOK:  cpu time      0.0624: real time      0.0782
    SETDIJ:  cpu time      0.0181: real time      0.0181
    EDDIAG:  cpu time      0.6366: real time      0.6374
  RMM-DIIS:  cpu time      0.1326: real time      0.1302
    ORTHCH:  cpu time      0.0868: real time      0.0868
       DOS:  cpu time      0.0023: real time      0.0023
    CHARGE:  cpu time      0.0193: real time      0.0193
    MIXING:  cpu time      0.0020: real time      0.0020
    --------------------------------------------
      LOOP:  cpu time      0.9601: real time      0.9743

 eigenvalue-minimisations  :  1201
 total energy-change (2. order) :-0.1620426E+00  (-0.5438656E-01)
 number of electron     754.0001760 magnetization 
 augmentation part      416.5396590 magnetization 

 Broyden mixing:
  rms(total) = 0.19165E+01    rms(broyden)= 0.19163E+01
  rms(prec ) = 0.28865E+01
  weight for this iteration     100.00

 eigenvalues of (default mixing * dielectric matrix)
  average eigenvalue GAMMA=   0.3863
  0.9753  0.4949  0.4949  0.1553  0.1151  0.0825

 Free energy of the ion-electron system (eV)
  ---------------------------------------------------
  alpha Z        PSCENC =      6336.68346171
  Ewald energy   TEWEN  =    -91265.47543856
  -Hartree energ DENC   =    -23999.00843713
  -exchange      EXHF   =         0.00000000
  -V(xc)+E(xc)   XCENC  =      3932.32940336
  PAW double counting   =    105868.86658287  -108952.88666397
  entropy T*S    EENTRO =        -0.15303382
  eigenvalues    EBANDS =     -9906.14752654
  atomic energy  EATOM  =    117465.09339752
  Solvation  Ediel_sol  =         0.00000000
  ---------------------------------------------------
  free energy    TOTEN  =      -520.69825454 eV

  energy without entropy =     -520.54522072  energy(sigma->0) =     -520.62173763


--------------------------------------------------------------------------------------------------------




--------------------------------------- Iteration      1(  19)  ---------------------------------------


    POTLOK:  cpu time      0.0558: real time      0.0720
    SETDIJ:  cpu time      0.0157: real time      0.0157
    EDDIAG:  cpu time      0.5954: real time      0.5962
  RMM-DIIS:  cpu time      0.0958: real time      0.0957
    ORTHCH:  cpu time      0.0984: real time      0.1017
       DOS:  cpu time      0.0021: real time      0.0021
    CHARGE:  cpu time      0.0198: real time      0.0198
    MIXING:  cpu time      0.0020: real time      0.0020
    --------------------------------------------
      LOOP:  cpu time      0.8848: real time      0.9051

 eigenvalue-minimisations  :  1050
 total energy-change (2. order) : 0.6051649E+00  (-0.3064401E-01)
 number of electron     754.0001762 magnetization 
 augmentation part      417.0351985 magnetization 

 Broyden mixing:
  rms(total) = 0.15182E+01    rms(broyden)= 0.15181E+01
  rms(prec ) = 0.18724E+01
  weight for this iteration     100.00

 eigenvalues of (default mixing * dielectric matrix)
  average eigenvalue GAMMA=   0.4805
  0.8176  0.8176  0.8842  0.5033  0.1522  0.1163  0.0722

 Free energy of the ion-electron system (eV)
  ---------------------------------------------------
  alpha Z        PSCENC =      6336.68346171
  Ewald energy   TEWEN  =    -91265.47543856
  -Hartree energ DENC   =    -23968.13661586
  -exchange      EXHF   =         0.00000000
  -V(xc)+E(xc)   XCENC  =      3930.87687998
  PAW double counting   =    105978.26440481  -109065.56719435
  entropy T*S    EENTRO =        -0.17006122
  eigenvalues    EBANDS =     -9931.66192371
  atomic energy  EATOM  =    117465.09339752
  Solvation  Ediel_sol  =         0.00000000
  ---------------------------------------------------
  free energy    TOTEN  =      -520.09308966 eV

  energy without entropy =     -519.92302845  energy(sigma->0) =     -520.00805905


--------------------------------------------------------------------------------------------------------




--------------------------------------- Iteration      1(  20)  ---------------------------------------


    POTLOK:  cpu time      0.0547: real time      0.0708
    SETDIJ:  cpu time      0.0153: real time      0.0153
    EDDIAG:  cpu time      0.5985: real time      0.6019
  RMM-DIIS:  cpu time      0.0956: real time      0.0955
    ORTHCH:  cpu time      0.1305: real time      0.1279
       DOS:  cpu time      0.0035: real time      0.0035
    CHARGE:  cpu time      0.0200: real time      0.0200
    MIXING:  cpu time      0.0036: real time      0.0036
    --------------------------------------------
      LOOP:  cpu time      0.9217: real time      0.9384

 eigenvalue-minimisations  :  1031
 total energy-change (2. order) :-0.1118785E+00  (-0.1995792E-01)
 number of electron     754.0001765 magnetization 
 augmentation part      417.2885474 magnetization 

 Broyden mixing:
  rms(total) = 0.15802E+01    rms(broyden)= 0.15801E+01
  rms(prec ) = 0.22515E+01
  weight for this iteration     100.00

 eigenvalues of (default mixing * dielectric matrix)
  average eigenvalue GAMMA=   0.5966
  1.5086  1.5086  0.6611  0.6611  0.1524  0.1166  0.0923  0.0720

 Free energy of the ion-electron system (eV)
  ---------------------------------------------------
  alpha Z        PSCENC =      6336.68346171
  Ewald energy   TEWEN  =    -91265.47543856
  -Hartree energ DENC   =    -23950.23007269
  -exchange      EXHF   =         0.00000000
  -V(xc)+E(xc)   XCENC  =      3930.07258491
  PAW double counting   =    106066.11931507  -109156.99607604
  entropy T*S    EENTRO =        -0.16198152
  eigenvalues    EBANDS =     -9945.31015861
  atomic energy  EATOM  =    117465.09339752
  Solvation  Ediel_sol  =         0.00000000
  ---------------------------------------------------
  free energy    TOTEN  =      -520.20496820 eV

  energy without entropy =     -520.04298668  energy(sigma->0) =     -520.12397744


--------------------------------------------------------------------------------------------------------




--------------------------------------- Iteration      1(  21)  ---------------------------------------


    POTLOK:  cpu time      0.0553: real time      0.0720
    SETDIJ:  cpu time      0.0162: real time      0.0162
    EDDIAG:  cpu time      0.6075: real time      0.6073
  RMM-DIIS:  cpu time      0.1387: real time      0.1362
    ORTHCH:  cpu time      0.0876: real time      0.0876
       DOS:  cpu time      0.0049: real time      0.0049
    CHARGE:  cpu time      0.0191: real time      0.0191
    MIXING:  cpu time      0.0021: real time      0.0021
    --------------------------------------------
      LOOP:  cpu time      0.9314: real time      0.9454

 eigenvalue-minimisations  :  1433
 total energy-change (2. order) : 0.4708255E+00  (-0.9640487E-01)
 number of electron     754.0001774 magnetization 
 augmentation part      418.2708600 magnetization 

 Broyden mixing:
  rms(total) = 0.10486E+01    rms(broyden)= 0.10484E+01
  rms(prec ) = 0.16830E+01
  weight for this iteration     100.00

 eigenvalues of (default mixing * dielectric matrix)
  average eigenvalue GAMMA=   0.5710
  1.6237  1.6237  0.6536  0.6536  0.1538  0.1584  0.1157  0.0856  0.0709

 Free energy of the ion-electron system (eV)
  ---------------------------------------------------
  alpha Z        PSCENC =      6336.68346171
  Ewald energy   TEWEN  =    -91265.47543856
  -Hartree energ DENC   =    -23869.79766576
  -exchange      EXHF   =         0.00000000
  -V(xc)+E(xc)   XCENC  =      3926.51773291
  PAW double counting   =    106510.48010737  -109619.30618638
  entropy T*S    EENTRO =        -0.15107984
  eigenvalues    EBANDS =    -10003.77847164
  atomic energy  EATOM  =    117465.09339752
  Solvation  Ediel_sol  =         0.00000000
  ---------------------------------------------------
  free energy    TOTEN  =      -519.73414266 eV

  energy without entropy =     -519.58306282  energy(sigma->0) =     -519.65860274


--------------------------------------------------------------------------------------------------------




--------------------------------------- Iteration      1(  22)  ---------------------------------------


    POTLOK:  cpu time      0.0550: real time      0.0720
    SETDIJ:  cpu time      0.0154: real time      0.0153
    EDDIAG:  cpu time      0.6021: real time      0.6020
  RMM-DIIS:  cpu time      0.1140: real time      0.1125
    ORTHCH:  cpu time      0.0866: real time      0.0867
       DOS:  cpu time      0.0021: real time      0.0021
    CHARGE:  cpu time      0.0191: real time      0.0191
    MIXING:  cpu time      0.0023: real time      0.0023
    --------------------------------------------
      LOOP:  cpu time      0.8968: real time      0.9121

 eigenvalue-minimisations  :  1090
 total energy-change (2. order) : 0.2619591E+00  (-0.2390161E-01)
 number of electron     754.0001776 magnetization 
 augmentation part      418.4568949 magnetization 

 Broyden mixing:
  rms(total) = 0.59661E+00    rms(broyden)= 0.59634E+00
  rms(prec ) = 0.90324E+00
  weight for this iteration     100.00

 eigenvalues of (default mixing * dielectric matrix)
  average eigenvalue GAMMA=   0.6085
  1.8028  1.8028  0.6976  0.6343  0.6343  0.1525  0.1161  0.0984  0.0703  0.0760

 Free energy of the ion-electron system (eV)
  ---------------------------------------------------
  alpha Z        PSCENC =      6336.68346171
  Ewald energy   TEWEN  =    -91265.47543856
  -Hartree energ DENC   =    -23852.36721856
  -exchange      EXHF   =         0.00000000
  -V(xc)+E(xc)   XCENC  =      3925.75440613
  PAW double counting   =    106637.27398902  -109750.63829506
  entropy T*S    EENTRO =        -0.16517243
  eigenvalues    EBANDS =    -10015.63131336
  atomic energy  EATOM  =    117465.09339752
  Solvation  Ediel_sol  =         0.00000000
  ---------------------------------------------------
  free energy    TOTEN  =      -519.47218359 eV

  energy without entropy =     -519.30701115  energy(sigma->0) =     -519.38959737


--------------------------------------------------------------------------------------------------------




--------------------------------------- Iteration      1(  23)  ---------------------------------------


    POTLOK:  cpu time      0.0708: real time      0.0718
    SETDIJ:  cpu time      0.0153: real time      0.0152
    EDDIAG:  cpu time      0.8431: real time      0.8438
  RMM-DIIS:  cpu time      0.1173: real time      0.1151
    ORTHCH:  cpu time      0.0861: real time      0.0860
       DOS:  cpu time      0.0021: real time      0.0021
    CHARGE:  cpu time      0.0206: real time      0.0206
    MIXING:  cpu time      0.0033: real time      0.0059
    --------------------------------------------
      LOOP:  cpu time      1.1585: real time      1.1604

 eigenvalue-minimisations  :  1078
 total energy-change (2. order) :-0.2038517E+00  (-0.2002960E-01)
 number of electron     754.0001778 magnetization 
 augmentation part      418.7573587 magnetization 

 Broyden mixing:
  rms(total) = 0.89121E+00    rms(broyden)= 0.89105E+00
  rms(prec ) = 0.15699E+01
  weight for this iteration     100.00

 eigenvalues of (default mixing * dielectric matrix)
  average eigenvalue GAMMA=   0.5785
  1.8302  1.8302  0.7495  0.6725  0.6725  0.1525  0.1152  0.1054  0.0916  0.0742
  0.0695

 Free energy of the ion-electron system (eV)
  ---------------------------------------------------
  alpha Z        PSCENC =      6336.68346171
  Ewald energy   TEWEN  =    -91265.47543856
  -Hartree energ DENC   =    -23826.40523520
  -exchange      EXHF   =         0.00000000
  -V(xc)+E(xc)   XCENC  =      3924.62219852
  PAW double counting   =    106947.86036979  -110070.50135218
  entropy T*S    EENTRO =        -0.15830626
  eigenvalues    EBANDS =    -10031.39513063
  atomic energy  EATOM  =    117465.09339752
  Solvation  Ediel_sol  =         0.00000000
  ---------------------------------------------------
  free energy    TOTEN  =      -519.67603528 eV

  energy without entropy =     -519.51772901  energy(sigma->0) =     -519.59688215


--------------------------------------------------------------------------------------------------------




--------------------------------------- Iteration      1(  24)  ---------------------------------------


    POTLOK:  cpu time      0.0559: real time      0.0715
    SETDIJ:  cpu time      0.0159: real time      0.0158
    EDDIAG:  cpu time      0.6245: real time      0.6254
  RMM-DIIS:  cpu time      0.0940: real time      0.0940
[...]
   Mn        677.780          4.107         69.809          1.10808584
   Mn        677.779          4.107         69.809          1.10808533
   Mn        677.780          4.107         69.809          1.10808568
   Mn        677.780          4.107         69.809          1.10808571
   Mn        677.780          4.107         69.809          1.10808625
   Mn        677.781          4.107         69.809          1.10808688
   Mn        677.780          4.107         69.809          1.10808595
   Mn        677.740          4.106         69.807          1.10805330
   Mn        675.396          4.104         69.687          1.10613540
   Mn        675.396          4.104         69.687          1.10613577
   Mn        675.395          4.104         69.686          1.10613483
   Mn        675.395          4.104         69.686          1.10613483
   Mn        676.222          4.105         69.729          1.10681206
   Mn        676.222          4.105         69.729          1.10681176
   Mn        676.223          4.105         69.729          1.10681225
   Mn        676.222          4.105         69.729          1.10681176
   Mn        676.223          4.105         69.729          1.10681292
   Mn        676.224          4.105         69.729          1.10681322
   Mn        676.222          4.105         69.729          1.10681216
   Mn        676.222          4.105         69.729          1.10681197
   Mn        676.222          4.105         69.729          1.10681199
   Mn        676.223          4.105         69.729          1.10681243
   Mn        676.223          4.105         69.729          1.10681221
   Mn        676.223          4.105         69.729          1.10681285
   Mn        677.779          4.107         69.809          1.10808509
   Mn        677.780          4.107         69.809          1.10808577
   Mn        677.779          4.107         69.809          1.10808533
   Mn        677.780          4.107         69.809          1.10808574
   Mn        677.779          4.107         69.809          1.10808536
   Mn        677.780          4.107         69.809          1.10808570
   Mn        677.779          4.107         69.809          1.10808543
   Mn        677.780          4.107         69.809          1.10808585
   Mn        677.780          4.107         69.809          1.10808571
   Mn        677.778          4.107         69.809          1.10808466
   Mn        677.779          4.107         69.809          1.10808507
   Mn        677.779          4.107         69.809          1.10808541

  Number of pair interactions contributing to vdW energy: 1399228
  Edisp (eV):  -72.92500
    FORVDW:  cpu time      2.0061: real time      2.0069

  FORCE on cell =-STRESS in cart. coord.  units (eV):
  Direction    XX          YY          ZZ          XY          YZ          ZX
  --------------------------------------------------------------------------------------
  Alpha Z  6336.68346  6336.68346  6336.68346
  Ewald  -30414.19261-30414.17260-30414.18231    -0.00790     0.01371     0.00289
  Hartree  7947.37312  7947.38294  7947.37836    -0.00655     0.01005     0.00202
  E(xc)   -4473.37592 -4473.37589 -4473.37590    -0.00002     0.00000    -0.00000
  Local    8753.03941  8753.01178  8753.02557     0.01635    -0.02524    -0.00486
  n-local -2048.77444 -2048.77447 -2048.77473     0.00018     0.00008     0.00015
  augment  5724.07655  5724.07633  5724.07655    -0.00122     0.00039    -0.00029
  Kinetic  8156.83974  8156.83886  8156.83913    -0.00096     0.00020    -0.00045
  Fock        0.00000     0.00000     0.00000     0.00000     0.00000     0.00000
  vdW       -64.68290   -64.68284   -64.68289    -0.00007     0.00000    -0.00006
  -------------------------------------------------------------------------------------
  Total     -83.01358   -83.01242   -83.01275    -0.00020    -0.00079    -0.00061
  in kB    -207.76147  -207.75856  -207.75938    -0.00050    -0.00199    -0.00152
  external pressure =     -207.76 kB  Pullay stress =        0.00 kB


 VOLUME and BASIS-vectors are now :
 -----------------------------------------------------------------------------
  energy-cutoff  :      500.00
  volume of cell :      640.17
      direct lattice vectors                 reciprocal lattice vectors
     8.618497849  0.000000000  0.000000000     0.116029500  0.000000000  0.000000000
     0.000000000  8.618497849  0.000000000     0.000000000  0.116029500  0.000000000
     0.000000000  0.000000000  8.618497849     0.000000000  0.000000000  0.116029500

  length of vectors
     8.618497849  8.618497849  8.618497849     0.116029500  0.116029500  0.116029500


 FORCES acting on ions
    electron-ion (+dipol)            ewald-force                    non-local-force                 convergence-correction
 -----------------------------------------------------------------------------------------------
   -.447E-01 -.628E-01 -.158E-01   0.462E-01 0.638E-01 0.168E-01   0.229E-03 0.464E-03 0.203E-03   -.166E-02 -.129E-02 -.125E-02
   0.304E+02 0.304E+02 0.304E+02   -.294E+02 -.294E+02 -.294E+02   -.885E+00 -.884E+00 -.884E+00   -.322E-02 -.320E-02 -.268E-02
   -.304E+02 -.304E+02 0.304E+02   0.294E+02 0.294E+02 -.294E+02   0.884E+00 0.884E+00 -.885E+00   0.285E-02 0.287E-02 -.610E-02
   0.304E+02 -.304E+02 -.304E+02   -.294E+02 0.294E+02 0.294E+02   -.885E+00 0.885E+00 0.884E+00   -.557E-02 0.206E-02 0.292E-02
   -.304E+02 0.304E+02 -.304E+02   0.294E+02 -.294E+02 0.294E+02   0.884E+00 -.885E+00 0.884E+00   0.240E-02 -.608E-02 0.325E-02
   0.124E+02 -.412E+02 0.124E+02   -.130E+02 0.420E+02 -.130E+02   0.529E+00 -.853E+00 0.528E+00   0.716E-03 0.139E-02 0.155E-02
   -.124E+02 0.412E+02 0.124E+02   0.130E+02 -.420E+02 -.130E+02   -.528E+00 0.853E+00 0.528E+00   0.526E-03 0.222E-02 0.181E-03
   0.124E+02 0.412E+02 -.124E+02   -.130E+02 -.420E+02 0.130E+02   0.528E+00 0.853E+00 -.528E+00   0.146E-02 -.196E-04 -.102E-02
   -.124E+02 0.123E+02 0.412E+02   0.130E+02 -.130E+02 -.420E+02   -.529E+00 0.528E+00 0.853E+00   0.873E-03 0.166E-03 0.458E-03
   -.124E+02 -.125E+02 -.411E+02   0.131E+02 0.131E+02 0.419E+02   -.528E+00 -.529E+00 -.853E+00   -.610E-03 0.182E-03 0.511E-03
   -.411E+02 -.125E+02 -.124E+02   0.419E+02 0.131E+02 0.131E+02   -.853E+00 -.529E+00 -.529E+00   0.197E-02 0.809E-03 0.300E-03
   0.411E+02 0.124E+02 -.124E+02   -.420E+02 -.130E+02 0.130E+02   0.853E+00 0.528E+00 -.529E+00   -.329E-03 0.141E-02 -.112E-02
   0.411E+02 -.124E+02 0.124E+02   -.420E+02 0.131E+02 -.130E+02   0.853E+00 -.529E+00 0.529E+00   0.198E-02 -.339E-03 0.979E-03
   0.124E+02 -.124E+02 0.411E+02   -.130E+02 0.131E+02 -.420E+02   0.528E+00 -.528E+00 0.853E+00   0.902E-03 0.475E-04 0.526E-03
   0.124E+02 0.124E+02 -.411E+02   -.130E+02 -.131E+02 0.420E+02   0.529E+00 0.528E+00 -.853E+00   0.173E-02 0.190E-02 0.648E-03
   -.412E+02 0.124E+02 0.124E+02   0.420E+02 -.131E+02 -.130E+02   -.853E+00 0.529E+00 0.529E+00   0.155E-02 0.911E-03 0.180E-02
   -.125E+02 -.411E+02 -.124E+02   0.131E+02 0.419E+02 0.131E+02   -.529E+00 -.853E+00 -.529E+00   0.529E-03 0.235E-02 0.349E-03
   -.314E+02 0.351E+02 -.313E+02   0.323E+02 -.357E+02 0.322E+02   -.884E+00 0.743E+00 -.884E+00   0.802E-03 0.503E-02 0.131E-02
   0.313E+02 -.350E+02 -.313E+02   -.322E+02 0.357E+02 0.322E+02   0.884E+00 -.743E+00 -.884E+00   0.132E-02 -.229E-02 0.140E-02
   -.313E+02 -.351E+02 0.313E+02   0.322E+02 0.357E+02 -.322E+02   -.884E+00 -.743E+00 0.884E+00   0.377E-02 -.300E-02 -.787E-03
   0.313E+02 -.314E+02 -.350E+02   -.322E+02 0.323E+02 0.357E+02   0.884E+00 -.884E+00 -.743E+00   -.855E-03 0.283E-02 -.249E-02
   0.313E+02 0.314E+02 0.350E+02   -.322E+02 -.323E+02 -.357E+02   0.884E+00 0.884E+00 0.743E+00   0.380E-03 0.256E-02 0.216E-02
   0.351E+02 0.314E+02 0.313E+02   -.357E+02 -.323E+02 -.322E+02   0.743E+00 0.884E+00 0.884E+00   0.299E-02 -.184E-02 0.935E-03
   -.350E+02 -.314E+02 0.313E+02   0.357E+02 0.323E+02 -.322E+02   -.743E+00 -.884E+00 0.884E+00   -.244E-02 0.231E-02 -.318E-03
   -.350E+02 0.312E+02 -.313E+02   0.357E+02 -.321E+02 0.323E+02   -.743E+00 0.884E+00 -.884E+00   -.181E-02 0.169E-02 0.415E-03
   -.313E+02 0.312E+02 -.351E+02   0.323E+02 -.321E+02 0.358E+02   -.884E+00 0.884E+00 -.743E+00   0.316E-02 -.933E-03 -.236E-02
   -.313E+02 -.314E+02 0.350E+02   0.323E+02 0.323E+02 -.357E+02   -.884E+00 -.884E+00 0.743E+00   0.881E-03 0.929E-03 0.587E-02
   0.350E+02 -.314E+02 -.313E+02   -.357E+02 0.323E+02 0.322E+02   0.743E+00 -.884E+00 -.884E+00   0.496E-02 0.103E-02 0.191E-02
   0.313E+02 0.351E+02 0.314E+02   -.322E+02 -.357E+02 -.323E+02   0.884E+00 0.743E+00 0.884E+00   -.223E-02 0.238E-02 0.246E-02
   0.295E-01 0.877E-01 0.526E-01   -.286E-01 -.884E-01 -.554E-01   -.209E-03 -.430E-03 -.358E-03   -.720E-03 0.858E-03 0.289E-02
   0.304E+02 0.304E+02 0.304E+02   -.294E+02 -.294E+02 -.294E+02   -.885E+00 -.885E+00 -.885E+00   -.362E-02 -.276E-02 -.278E-02
   -.304E+02 -.304E+02 0.304E+02   0.294E+02 0.294E+02 -.294E+02   0.885E+00 0.885E+00 -.884E+00   0.423E-02 0.427E-02 -.172E-02
   0.304E+02 -.304E+02 -.304E+02   -.294E+02 0.294E+02 0.294E+02   -.884E+00 0.884E+00 0.884E+00   -.180E-02 0.447E-02 0.527E-02
   -.304E+02 0.304E+02 -.304E+02   0.294E+02 -.294E+02 0.294E+02   0.885E+00 -.885E+00 0.885E+00   0.376E-02 -.161E-02 0.470E-02
   0.124E+02 -.411E+02 0.124E+02   -.130E+02 0.419E+02 -.130E+02   0.529E+00 -.853E+00 0.529E+00   -.122E-02 -.132E-02 -.848E-03
   -.124E+02 0.410E+02 0.124E+02   0.130E+02 -.418E+02 -.130E+02   -.529E+00 0.853E+00 0.529E+00   0.753E-04 0.168E-02 -.203E-03
   0.124E+02 0.410E+02 -.124E+02   -.131E+02 -.418E+02 0.130E+02   0.528E+00 0.853E+00 -.528E+00   -.793E-03 -.300E-02 0.150E-03
   -.124E+02 0.124E+02 0.411E+02   0.130E+02 -.131E+02 -.419E+02   -.529E+00 0.529E+00 0.853E+00   0.287E-03 -.127E-02 -.162E-02
   -.124E+02 -.123E+02 -.411E+02   0.130E+02 0.130E+02 0.419E+02   -.529E+00 -.529E+00 -.853E+00   -.102E-02 -.113E-02 -.362E-02
   -.411E+02 -.124E+02 -.124E+02   0.419E+02 0.130E+02 0.130E+02   -.853E+00 -.528E+00 -.528E+00   0.240E-02 -.753E-03 -.794E-04
   0.411E+02 0.124E+02 -.124E+02   -.419E+02 -.131E+02 0.130E+02   0.853E+00 0.529E+00 -.529E+00   -.584E-03 -.146E-02 0.235E-03
   0.411E+02 -.124E+02 0.124E+02   -.419E+02 0.130E+02 -.130E+02   0.853E+00 -.529E+00 0.529E+00   0.212E-02 -.342E-04 -.104E-02
   0.124E+02 -.124E+02 0.410E+02   -.130E+02 0.130E+02 -.419E+02   0.529E+00 -.528E+00 0.853E+00   -.137E-02 0.671E-04 -.365E-02
   0.124E+02 0.124E+02 -.411E+02   -.130E+02 -.130E+02 0.419E+02   0.529E+00 0.529E+00 -.853E+00   -.337E-03 0.583E-03 -.671E-03
   -.411E+02 0.124E+02 0.124E+02   0.419E+02 -.130E+02 -.130E+02   -.853E+00 0.529E+00 0.529E+00   -.114E-02 -.215E-02 -.225E-02
   -.124E+02 -.412E+02 -.124E+02   0.130E+02 0.420E+02 0.130E+02   -.529E+00 -.853E+00 -.529E+00   -.251E-03 -.232E-03 0.582E-05
   -.313E+02 0.351E+02 -.313E+02   0.322E+02 -.357E+02 0.322E+02   -.884E+00 0.743E+00 -.884E+00   -.110E-02 0.102E-02 0.371E-02
   0.314E+02 -.351E+02 -.313E+02   -.323E+02 0.358E+02 0.322E+02   0.884E+00 -.743E+00 -.884E+00   -.227E-02 -.284E-02 0.315E-03
   -.313E+02 -.351E+02 0.314E+02   0.322E+02 0.358E+02 -.323E+02   -.884E+00 -.743E+00 0.884E+00   0.115E-02 -.373E-02 -.275E-02
   0.314E+02 -.312E+02 -.351E+02   -.323E+02 0.321E+02 0.358E+02   0.884E+00 -.884E+00 -.743E+00   -.482E-02 0.335E-04 -.356E-02
   0.313E+02 0.313E+02 0.350E+02   -.322E+02 -.322E+02 -.357E+02   0.884E+00 0.884E+00 0.743E+00   -.162E-02 -.158E-02 0.276E-02
   0.351E+02 0.312E+02 0.313E+02   -.358E+02 -.321E+02 -.322E+02   0.743E+00 0.884E+00 0.884E+00   0.288E-02 -.497E-02 -.415E-02
   -.351E+02 -.312E+02 0.314E+02   0.358E+02 0.321E+02 -.323E+02   -.743E+00 -.884E+00 0.884E+00   -.316E-02 0.123E-02 -.141E-02
   -.351E+02 0.314E+02 -.312E+02   0.358E+02 -.323E+02 0.322E+02   -.743E+00 0.884E+00 -.884E+00   -.284E-02 -.690E-03 0.726E-03
   -.312E+02 0.314E+02 -.351E+02   0.322E+02 -.323E+02 0.357E+02   -.884E+00 0.884E+00 -.743E+00   0.194E-03 -.454E-02 -.382E-02
   -.313E+02 -.312E+02 0.351E+02   0.322E+02 0.322E+02 -.357E+02   -.884E+00 -.884E+00 0.743E+00   -.579E-03 0.170E-02 0.125E-02
   0.351E+02 -.313E+02 -.313E+02   -.357E+02 0.322E+02 0.322E+02   0.743E+00 -.884E+00 -.884E+00   0.472E-03 0.903E-04 0.283E-02
   0.313E+02 0.351E+02 0.313E+02   -.322E+02 -.357E+02 -.322E+02   0.884E+00 0.743E+00 0.884E+00   -.399E-02 0.260E-02 -.360E-02
 -----------------------------------------------------------------------------------------------
   -.935E-03 -.439E-03 0.740E-03   -.284E-12 0.313E-12 -.796E-12   -.491E-03 -.211E-03 0.405E-03   0.136E-02 0.611E-03 -.110E-02
 
 
 POSITION                                       TOTAL-FORCE (eV/Angst)
 -----------------------------------------------------------------------------------
     -0.00002     -0.00002     -0.00000         0.000168      0.000247      0.000039
      2.78059      2.78058      2.78057        -0.002101     -0.002115     -0.002052
      1.52864      1.52867      7.08986         0.002164      0.002128     -0.002084
      7.08984      1.52867      1.52867        -0.002102      0.002201      0.002105
      1.52865      7.08986      1.52865         0.002188     -0.002051      0.002101
      3.08565      0.29914      3.08566        -0.005450     -0.009894     -0.005533
      1.22360      4.01011      7.39487         0.005346      0.009955     -0.005214
      7.39489      4.01010      1.22360        -0.005425      0.010082      0.005456
      1.22361      7.39487      4.01010         0.005281     -0.005150      0.010088
      1.22358      1.22358      4.60843         0.005784      0.005696     -0.010454
      4.60845      1.22357      1.22358        -0.010536      0.005741      0.005620
      4.01009      7.39489      1.22360         0.010158     -0.005337      0.005443
      4.01009      1.22359      7.39489         0.010110      0.005549     -0.005385
      7.39489      1.22359      4.01010        -0.005394      0.005527      0.010124
      3.08566      3.08567      0.29916        -0.005516     -0.005696     -0.010119
      0.29916      3.08567      3.08566        -0.010137     -0.005612     -0.005521
      1.22357      4.60844      1.22358         0.005769     -0.010559      0.005654
      0.76335      2.44110      0.76336         0.001046     -0.008980      0.000983
      7.85511      6.17741      0.76336        -0.000734      0.008753      0.001076
      0.76336      6.17740      7.85512         0.001075      0.009032     -0.000810
      7.85512      0.76335      6.17741        -0.000624      0.001173      0.008891
      3.54589      3.54591      6.75034        -0.000980     -0.001530     -0.008862
      6.75034      3.54590      3.54588        -0.008916     -0.001089     -0.000953
      6.17741      0.76334      7.85511         0.008835      0.001361     -0.000683
      6.17741      7.85510      0.76336         0.008820     -0.000571      0.001246
      0.76336      7.85510      6.17739         0.001163     -0.000600      0.009127
      0.76335      0.76334      2.44109         0.000999      0.001196     -0.008835
      2.44109      0.76334      0.76336        -0.008806      0.001184      0.000874
      3.54589      6.75035      3.54591        -0.001032     -0.009023     -0.001429
      4.30926      4.30928      4.30927        -0.000032     -0.000343     -0.000290
      7.08985      7.08987      7.08985        -0.002140     -0.002253     -0.002234
      5.83790      5.83789      2.78060         0.002097      0.002091     -0.002082
      2.78060      5.83789      5.83789        -0.002126      0.001983      0.002014
      5.83790      2.78058      5.83790         0.002128     -0.002160      0.002141
      7.39490      4.60844      7.39490        -0.005388     -0.010425     -0.005471
      5.53285      8.31929      3.08565         0.005337      0.010722     -0.005463
      3.08567      8.31928      5.53285        -0.005555      0.011077      0.005401
      5.53286      3.08566      8.31931         0.005299     -0.005502      0.010532
      5.53287      5.53288      0.29916         0.005135      0.005004     -0.010298
      0.29918      5.53287      5.53286        -0.010651      0.005166      0.005187
      8.31930      3.08567      5.53285         0.010503     -0.005518      0.005314
      8.31931      5.53287      3.08565         0.010493      0.005154     -0.005334
      3.08565      5.53287      8.31929        -0.005399      0.005203      0.010870
      7.39489      7.39489      4.60843        -0.005300     -0.005379     -0.010364
      4.60843      7.39488      7.39489        -0.010332     -0.005079     -0.005144
      5.53286      0.29915      5.53287         0.005215     -0.010057      0.005138
      5.07261      6.75036      5.07263         0.001343     -0.009062      0.000909
      3.54590      1.86813      5.07264        -0.001275      0.008971      0.000785
      5.07263      1.86814      3.54590         0.000681      0.008898     -0.001201
      3.54590      5.07265      1.86813        -0.001308      0.000667      0.009079
      7.85512      7.85510      2.44110        -0.000983     -0.000695     -0.008788
      2.44112      7.85510      7.85511        -0.009105     -0.000595     -0.000888
      1.86814      5.07265      3.54592         0.009013      0.000673     -0.001680
      1.86814      3.54592      5.07264         0.009008     -0.001713      0.000704
      5.07264      3.54591      1.86815         0.000591     -0.001268      0.008882
      5.07260      5.07264      6.75035         0.001455      0.000808     -0.008954
      6.75036      5.07263      5.07262        -0.008981      0.000930      0.001120
      7.85512      2.44111      7.85512        -0.000878     -0.008915     -0.000781
 -----------------------------------------------------------------------------------
    total drift:                               -0.000070     -0.000039      0.000047


--------------------------------------------------------------------------------------------------------



  FREE ENERGIE OF THE ION-ELECTRON SYSTEM (eV)
  ---------------------------------------------------
  free  energy   TOTEN  =      -592.49733258 eV

  energy  without entropy=     -592.35121653  energy(sigma->0) =     -592.42427456
 
 d Force = 0.9861542E-03[-0.668E-04, 0.204E-02]  d Energy =-0.2262635E-02 0.325E-02
 d Force =-0.4408117E+01[-0.453E+01,-0.429E+01]  d Ewald  =-0.4408268E+01 0.151E-03


--------------------------------------------------------------------------------------------------------


    POTLOK:  cpu time      0.0796: real time      0.0795


--------------------------------------------------------------------------------------------------------




--------------------------------------------------------------------------------------------------------


  
 reached required accuracy - stopping structural energy minimisation
 writing wavefunctions
     LOOP+:  cpu time     20.2853: real time     20.5154
    4ORBIT:  cpu time      0.0000: real time      0.0000

 total amount of memory used by VASP MPI-rank0    39413. kBytes
=======================================================================

   base      :      30000. kBytes
   nonlr-proj:       6079. kBytes
   fftplans  :       1252. kBytes
   grid      :       1563. kBytes
   one-center:        233. kBytes
   wavefun   :        286. kBytes
 
  
  
 General timing and accounting informations for this job:
 ========================================================
  
                  Total CPU time used (sec):      236.679
                            User time (sec):      228.601
                          System time (sec):        8.078
                         Elapsed time (sec):      239.700
  
                   Maximum memory used (kb):     1206148.
                   Average memory used (kb):          N/A
  
                          Minor page faults:        58986
                          Major page faults:            0
                 Voluntary context switches:        23245
