 ----------------------------------------------------
    OOO  PPPP  EEEEE N   N M   M PPPP
   O   O P   P E     NN  N MM MM P   P
   O   O PPPP  EEEEE N N N M M M PPPP   -- VERSION
   O   O P     E     N  NN M   M P
    OOO  P     EEEEE N   N M   M P
 ----------------------------------------------------
 running    4 mpi-ranks, with    1 threads/rank
 distrk:  each k-point on    4 cores,    1 groups
 distr:  one band on    1 cores,    4 groups
 OpenACC runtime initialized ...    2 GPUs detected
 WARNING: INIT_ACC: several MPI-ranks need to share a GPU, which is not
     supported by NCCL. The use of NCCL will be switched off. To avoid this,
     reduce the number of MPI-ranks: #-of-ranks <= #-of-GPUs (on every node!).

 vasp.6.3.2 27Jun22 (build Aug  5 2024 13:45:50) complex                         
 POSCAR found type information on POSCAR MnBrN C H 
 POSCAR found :  5 types and     635 ions
 LDA part: xc-table for Pade appr. of Perdew
 POSCAR, INCAR and KPOINTS ok, starting setup
 FFT: planning ... GRIDC
 FFT: planning ... GRID_SOFT
 FFT: planning ... GRID
 WAVECAR not read
 entering main loop
       N       E                     dE             d eps       ncg     rms          rms(c)
DAV:   1     0.104265783284E+05    0.10427E+05   -0.79766E+05  5168   0.122E+03
DAV:   2    -0.247430483778E+04   -0.12901E+05   -0.12445E+05  6136   0.267E+02
DAV:   3    -0.388893738249E+04   -0.14146E+04   -0.13772E+04  6120   0.935E+01
DAV:   4    -0.393250448194E+04   -0.43567E+02   -0.42999E+02  6168   0.183E+01
DAV:   5    -0.393409145249E+04   -0.15870E+01   -0.15835E+01  6704   0.331E+00    0.189E+02
DAV:   6    -0.488618748820E+04   -0.95210E+03   -0.18122E+03  6248   0.496E+01    0.514E+02
DAV:   7    -0.435134903937E+04    0.53484E+03   -0.10190E+03  6128   0.246E+01    0.273E+02
DAV:   8    -0.374618739143E+04    0.60516E+03   -0.10484E+03  6528   0.540E+01    0.122E+02
DAV:   9    -0.435459426013E+04   -0.60841E+03   -0.25836E+03  6920   0.378E+01    0.188E+02
DAV:  10    -0.360671639491E+04    0.74788E+03   -0.24287E+03  6656   0.350E+01    0.119E+02
DAV:  11    -0.365469553364E+04   -0.47979E+02   -0.41937E+02  6640   0.245E+01    0.116E+02
DAV:  12    -0.364946096260E+04    0.52346E+01   -0.21728E+02  6544   0.156E+01    0.108E+02
DAV:  13    -0.368934476656E+04   -0.39884E+02   -0.16250E+02  6752   0.117E+01    0.118E+02
DAV:  14    -0.363465064785E+04    0.54694E+02   -0.13620E+02  6448   0.118E+01    0.106E+02
DAV:  15    -0.359501995788E+04    0.39631E+02   -0.65177E+01  6328   0.587E+00    0.897E+01
DAV:  16    -0.361311566506E+04   -0.18096E+02   -0.41406E+01  6336   0.497E+00    0.961E+01
DAV:  17    -0.358934280284E+04    0.23773E+02   -0.20382E+01  6240   0.484E+00    0.773E+01
DAV:  18    -0.359705880954E+04   -0.77160E+01   -0.44006E+01  6152   0.417E+00    0.869E+01
DAV:  19    -0.360177218159E+04   -0.47134E+01   -0.33885E+01  6024   0.475E+00    0.886E+01
DAV:  20    -0.358857398068E+04    0.13198E+02   -0.32231E+01  6136   0.416E+00    0.721E+01
DAV:  21    -0.358449774815E+04    0.40762E+01   -0.20319E+01  6024   0.252E+00    0.632E+01
DAV:  22    -0.358368175710E+04    0.81599E+00   -0.59382E+00  5512   0.137E+00    0.597E+01
DAV:  23    -0.358414423145E+04   -0.46247E+00   -0.11705E+00  5488   0.733E-01    0.597E+01
DAV:  24    -0.358413489206E+04    0.93394E-02   -0.17152E-01  5728   0.327E-01    0.614E+01
DAV:  25    -0.358445561067E+04   -0.32072E+00   -0.36308E+00  5720   0.479E-01    0.585E+01
DAV:  26    -0.358435521601E+04    0.10039E+00   -0.10026E+00  5320   0.588E-01    0.571E+01
DAV:  27    -0.358457644904E+04   -0.22123E+00   -0.69995E-01  5456   0.270E-01    0.608E+01
DAV:  28    -0.358455928664E+04    0.17162E-01   -0.10969E+00  5320   0.260E-01    0.591E+01
DAV:  29    -0.358537583220E+04   -0.81655E+00   -0.33477E+00  5336   0.564E-01    0.592E+01
DAV:  30    -0.358559863941E+04   -0.22281E+00   -0.10067E+00  5232   0.516E-01    0.580E+01
DAV:  31    -0.358537834237E+04    0.22030E+00   -0.95883E-01  5536   0.488E-01    0.584E+01
DAV:  32    -0.358530890221E+04    0.69440E-01   -0.79982E-02  5320   0.322E-01    0.583E+01
DAV:  33    -0.358525134328E+04    0.57559E-01   -0.24634E-02  5400   0.155E-01    0.588E+01
DAV:  34    -0.358527016932E+04   -0.18826E-01   -0.21186E-02  5568   0.726E-02    0.587E+01
DAV:  35    -0.358533479637E+04   -0.64627E-01   -0.20576E-01  5424   0.162E-01    0.586E+01
DAV:  36    -0.358522517531E+04    0.10962E+00   -0.64346E-02  5200   0.180E-01    0.588E+01
DAV:  37    -0.358468613766E+04    0.53904E+00   -0.26336E-01  5656   0.341E-01    0.583E+01
DAV:  38    -0.358464515260E+04    0.40985E-01   -0.29426E-02  5208   0.187E-01    0.583E+01
DAV:  39    -0.358437838462E+04    0.26677E+00   -0.10215E-01  5656   0.373E-01    0.575E+01
DAV:  40    -0.358446967105E+04   -0.91286E-01   -0.51632E-01  5888   0.360E-01    0.534E+01
DAV:  41    -0.358465750733E+04   -0.18784E+00   -0.12872E-01  5168   0.344E-01    0.526E+01
DAV:  42    -0.358493306754E+04   -0.27556E+00   -0.17594E-01  5768   0.272E-01    0.499E+01
DAV:  43    -0.358535744465E+04   -0.42438E+00   -0.67076E-01  5248   0.529E-01    0.505E+01
DAV:  44    -0.358537488193E+04   -0.17437E-01   -0.16316E-01  5248   0.362E-01    0.516E+01
DAV:  45    -0.358521262246E+04    0.16226E+00   -0.85798E-02  5544   0.214E-01    0.517E+01
DAV:  46    -0.358500391604E+04    0.20871E+00   -0.20192E-02  5616   0.176E-01    0.517E+01
DAV:  47    -0.358522122378E+04   -0.21731E+00   -0.34175E-02  5136   0.245E-01    0.519E+01
DAV:  48    -0.358546243443E+04   -0.24121E+00   -0.10910E-01  5840   0.194E-01    0.518E+01
DAV:  49    -0.358552272031E+04   -0.60286E-01   -0.11546E-01  5352   0.221E-01    0.514E+01
DAV:  50    -0.358478558135E+04    0.73714E+00   -0.59628E-01  5816   0.581E-01    0.493E+01
DAV:  51    -0.358255944381E+04    0.22261E+01   -0.19150E+01  6216   0.441E+00    0.576E+01
DAV:  52    -0.358346824067E+04   -0.90880E+00   -0.23421E+00  5792   0.123E+00    0.578E+01
DAV:  53    -0.358342498554E+04    0.43255E-01   -0.97586E-02  6120   0.317E-01    0.581E+01
DAV:  54    -0.358327950388E+04    0.14548E+00   -0.36601E-02  5920   0.153E-01    0.572E+01
DAV:  55    -0.358321612077E+04    0.63383E-01   -0.20166E-02  5528   0.159E-01    0.573E+01
DAV:  56    -0.359555999542E+04   -0.12344E+02   -0.43662E+01  6144   0.348E+00    0.847E+01
DAV:  57    -0.358781763386E+04    0.77424E+01   -0.69964E+01  5720   0.418E+00    0.613E+01
DAV:  58    -0.358540293221E+04    0.24147E+01   -0.20067E+01  5544   0.249E+00    0.508E+01
DAV:  59    -0.358421237323E+04    0.11906E+01   -0.99828E+00  5504   0.139E+00    0.469E+01
DAV:  60    -0.358427763669E+04   -0.65263E-01   -0.90639E-01  5432   0.639E-01    0.460E+01
DAV:  61    -0.358645457152E+04   -0.21769E+01   -0.50048E+00  5816   0.221E+00    0.484E+01
DAV:  62    -0.358806655735E+04   -0.16120E+01   -0.16130E+01  5952   0.214E+00    0.525E+01
DAV:  63    -0.358664683307E+04    0.14197E+01   -0.23320E+01  5632   0.261E+00    0.438E+01
DAV:  64    -0.358263559507E+04    0.40112E+01   -0.19003E+01  5480   0.198E+00    0.424E+01
DAV:  65    -0.357842115952E+04    0.42144E+01   -0.39370E+00  5760   0.137E+00    0.414E+01
DAV:  66    -0.359501853914E+04   -0.16597E+02   -0.24200E+01  5684   0.340E+00    0.613E+01
DAV:  67    -0.358698639560E+04    0.80321E+01   -0.37158E+01  5616   0.349E+00    0.432E+01
DAV:  68    -0.358773674985E+04   -0.75035E+00   -0.60131E+00  5480   0.128E+00    0.441E+01
DAV:  69    -0.358745739276E+04    0.27936E+00   -0.13247E+01  5656   0.132E+00    0.406E+01
DAV:  70    -0.358735609343E+04    0.10130E+00   -0.13613E+00  5472   0.979E-01    0.395E+01
DAV:  71    -0.359131983595E+04   -0.39637E+01   -0.44596E+00  5800   0.215E+00    0.411E+01
DAV:  72    -0.359020526709E+04    0.11146E+01   -0.36404E+00  5664   0.177E+00    0.383E+01
DAV:  73    -0.359114181724E+04   -0.93655E+00   -0.14695E+00  5528   0.703E-01    0.385E+01
DAV:  74    -0.359151091629E+04   -0.36910E+00   -0.13922E-01  5952   0.357E-01    0.388E+01
DAV:  75    -0.359232943885E+04   -0.81852E+00   -0.14511E-01  6104   0.493E-01    0.383E+01
DAV:  76    -0.359232806402E+04    0.13748E-02   -0.15702E+01  5920   0.217E+00    0.438E+01
DAV:  77    -0.359157210022E+04    0.75596E+00   -0.11109E+01  5904   0.204E+00    0.377E+01
DAV:  78    -0.359245362710E+04   -0.88153E+00   -0.17191E+00  5480   0.114E+00    0.354E+01
DAV:  79    -0.359355526130E+04   -0.11016E+01   -0.34733E+00  6088   0.109E+00    0.353E+01
DAV:  80    -0.359423701894E+04   -0.68176E+00   -0.87389E-01  5600   0.826E-01    0.363E+01
DAV:  81    -0.359348824520E+04    0.74877E+00   -0.67077E+00  5592   0.161E+00    0.348E+01
DAV:  82    -0.359503007658E+04   -0.15418E+01   -0.37070E+00  5656   0.131E+00    0.372E+01
DAV:  83    -0.359506117872E+04   -0.31102E-01   -0.47038E+00  6040   0.101E+00    0.353E+01
DAV:  84    -0.359510614369E+04   -0.44965E-01   -0.19416E-01  5544   0.483E-01    0.352E+01
DAV:  85    -0.359513402776E+04   -0.27884E-01   -0.24267E-02  6136   0.147E-01    0.352E+01
DAV:  86    -0.359384545290E+04    0.12886E+01   -0.47901E+00  5592   0.134E+00    0.348E+01
DAV:  87    -0.359476344392E+04   -0.91799E+00   -0.14489E+00  5368   0.954E-01    0.345E+01
DAV:  88    -0.359466153727E+04    0.10191E+00   -0.13026E-01  5808   0.363E-01    0.337E+01
DAV:  89    -0.359464017384E+04    0.21363E-01   -0.45738E-02  5536   0.163E-01    0.330E+01
DAV:  90    -0.359459914179E+04    0.41032E-01   -0.18103E-02  5336   0.156E-01    0.330E+01
DAV:  91    -0.359391568023E+04    0.68346E+00   -0.40640E+00  5624   0.163E+00    0.372E+01
DAV:  92    -0.359551101413E+04   -0.15953E+01   -0.32219E+00  5640   0.107E+00    0.386E+01
DAV:  93    -0.359605825142E+04   -0.54724E+00   -0.14927E+00  5808   0.638E-01    0.423E+01
DAV:  94    -0.359588346573E+04    0.17479E+00   -0.10533E-01  5272   0.376E-01    0.427E+01
DAV:  95    -0.359585141983E+04    0.32046E-01   -0.33386E-02  5912   0.162E-01    0.429E+01
DAV:  96    -0.359689118579E+04   -0.10398E+01   -0.24248E+00  5720   0.185E+00    0.475E+01
DAV:  97    -0.359495152951E+04    0.19397E+01   -0.68884E+00  5848   0.123E+00    0.449E+01
DAV:  98    -0.359480597490E+04    0.14555E+00   -0.12162E+00  5496   0.666E-01    0.397E+01
DAV:  99    -0.359576059741E+04   -0.95462E+00   -0.25615E-01  5904   0.608E-01    0.388E+01
DAV: 100    -0.359574366234E+04    0.16935E-01   -0.69829E-01  5816   0.615E-01    0.347E+01
DAV: 101    -0.360261764571E+04   -0.68740E+01   -0.30214E+01  5768   0.272E+00    0.539E+01
DAV: 102    -0.359756096979E+04    0.50567E+01   -0.20606E+01  5648   0.278E+00    0.285E+01
DAV: 103    -0.359913548164E+04   -0.15745E+01   -0.10991E+00  5760   0.102E+00    0.273E+01
DAV: 104    -0.359933692274E+04   -0.20144E+00   -0.30690E-01  5944   0.689E-01    0.258E+01
DAV: 105    -0.359953585269E+04   -0.19893E+00   -0.72896E+00  6016   0.111E+00    0.287E+01
DAV: 106    -0.360224467993E+04   -0.27088E+01   -0.86282E+00  6080   0.145E+00    0.430E+01
DAV: 107    -0.360082313086E+04    0.14215E+01   -0.39888E+00  5760   0.919E-01    0.331E+01
DAV: 108    -0.360102258526E+04   -0.19945E+00   -0.17026E+00  5496   0.761E-01    0.358E+01
DAV: 109    -0.360097999356E+04    0.42592E-01   -0.12528E-01  5464   0.393E-01    0.365E+01
DAV: 110    -0.360094339218E+04    0.36601E-01   -0.19645E-02  5632   0.152E-01    0.365E+01
DAV: 111    -0.360220380252E+04   -0.12604E+01   -0.70587E+00  6120   0.155E+00    0.360E+01
DAV: 112    -0.360243495884E+04   -0.23116E+00   -0.42118E-01  5800   0.817E-01    0.358E+01
DAV: 113    -0.360234412672E+04    0.90832E-01   -0.32802E-01  6200   0.388E-01    0.359E+01
DAV: 114    -0.360230199129E+04    0.42135E-01   -0.32949E-01  5800   0.199E-01    0.358E+01
DAV: 115    -0.360233986618E+04   -0.37875E-01   -0.59944E-02  5528   0.166E-01    0.360E+01
DAV: 116    -0.360351489929E+04   -0.11750E+01   -0.14546E+01  6160   0.175E+00    0.477E+01
DAV: 117    -0.360057019267E+04    0.29447E+01   -0.74070E+00  5944   0.162E+00    0.279E+01
DAV: 118    -0.360133647457E+04   -0.76628E+00   -0.14246E+00  5648   0.849E-01    0.286E+01
DAV: 119    -0.360095677611E+04    0.37970E+00   -0.11470E-01  5840   0.345E-01    0.285E+01
DAV: 120    -0.360016071674E+04    0.79606E+00   -0.99248E-01  5856   0.885E-01    0.274E+01
DAV: 121    -0.360247171292E+04   -0.23110E+01   -0.40976E+00  5888   0.127E+00    0.344E+01
DAV: 122    -0.360094594934E+04    0.15258E+01   -0.36148E+00  5568   0.109E+00    0.308E+01
DAV: 123    -0.360063951146E+04    0.30644E+00   -0.28142E-01  5536   0.686E-01    0.312E+01
DAV: 124    -0.360047338110E+04    0.16613E+00   -0.42668E-01  5752   0.389E-01    0.327E+01
DAV: 125    -0.360015811359E+04    0.31527E+00   -0.10577E+00  5704   0.564E-01    0.304E+01
DAV: 126    -0.360067401959E+04   -0.51591E+00   -0.51915E-01  5704   0.729E-01    0.293E+01
DAV: 127    -0.360125536669E+04   -0.58135E+00   -0.13019E+00  6008   0.648E-01    0.326E+01
DAV: 128    -0.360133027197E+04   -0.74905E-01   -0.10756E-01  5320   0.372E-01    0.328E+01
DAV: 129    -0.360112723493E+04    0.20304E+00   -0.36134E-02  5736   0.291E-01    0.319E+01
DAV: 130    -0.360111409836E+04    0.13137E-01   -0.19783E-02  5448   0.138E-01    0.320E+01
DAV: 131    -0.360197529287E+04   -0.86119E+00   -0.16003E+01  5888   0.256E+00    0.261E+01
DAV: 132    -0.360416644413E+04   -0.21912E+01   -0.13863E+01  6064   0.180E+00    0.412E+01
DAV: 133    -0.360242924593E+04    0.17372E+01   -0.32321E+00  5624   0.125E+00    0.296E+01
DAV: 134    -0.360246309162E+04   -0.33846E-01   -0.62549E-01  5880   0.600E-01    0.326E+01
DAV: 135    -0.360227394187E+04    0.18915E+00   -0.11044E-01  5792   0.355E-01    0.332E+01
DAV: 136    -0.360096677867E+04    0.13072E+01   -0.92884E+00  5976   0.194E+00    0.296E+01
DAV: 137    -0.359831087051E+04    0.26559E+01   -0.39469E+00  6096   0.148E+00    0.252E+01
DAV: 138    -0.359678897076E+04    0.15219E+01   -0.19732E+00  5856   0.103E+00    0.355E+01
DAV: 139    -0.359603123825E+04    0.75773E+00   -0.47051E-01  5880   0.514E-01    0.378E+01
DAV: 140    -0.359595219492E+04    0.79043E-01   -0.99680E-02  5464   0.331E-01    0.404E+01
DAV: 141    -0.359642074543E+04   -0.46855E+00   -0.13059E+00  5768   0.112E+00    0.321E+01
DAV: 142    -0.359635749490E+04    0.63251E-01   -0.76833E-01  5544   0.615E-01    0.388E+01
DAV: 143    -0.359614831179E+04    0.20918E+00   -0.81398E-01  5928   0.602E-01    0.317E+01
DAV: 144    -0.359529405022E+04    0.85426E+00   -0.25692E-01  5824   0.584E-01    0.323E+01
DAV: 145    -0.359518043776E+04    0.11361E+00   -0.65662E-02  5968   0.226E-01    0.348E+01
DAV: 146    -0.359466736255E+04    0.51308E+00   -0.10391E+01  6128   0.258E+00    0.382E+01
DAV: 147    -0.359244139747E+04    0.22260E+01   -0.10070E+01  5840   0.183E+00    0.330E+01
DAV: 148    -0.359112466716E+04    0.13167E+01   -0.46341E-01  5880   0.850E-01    0.350E+01
DAV: 149    -0.359072858654E+04    0.39608E+00   -0.12353E-01  6016   0.313E-01    0.356E+01
DAV: 150    -0.359009274799E+04    0.63584E+00   -0.28120E-02  5904   0.232E-01    0.337E+01
DAV: 151    -0.360081096574E+04   -0.10718E+02   -0.11270E+01  6152   0.198E+00    0.418E+01
DAV: 152    -0.359789382140E+04    0.29171E+01   -0.34841E+00  5960   0.223E+00    0.290E+01
DAV: 153    -0.359753067935E+04    0.36314E+00   -0.84690E-01  5592   0.110E+00    0.306E+01
DAV: 154    -0.359805171604E+04   -0.52104E+00   -0.25538E-01  5896   0.525E-01    0.305E+01
DAV: 155    -0.359848718037E+04   -0.43546E+00   -0.56569E-02  5928   0.207E-01    0.304E+01
DAV: 156    -0.360413540129E+04   -0.56482E+01   -0.13874E+01  5792   0.170E+00    0.303E+01
DAV: 157    -0.360475055775E+04   -0.61516E+00   -0.22178E+00  5832   0.812E-01    0.325E+01
DAV: 158    -0.360447657488E+04    0.27398E+00   -0.63954E-01  5784   0.663E-01    0.299E+01
DAV: 159    -0.360451284127E+04   -0.36266E-01   -0.12101E-01  5832   0.307E-01    0.313E+01
DAV: 160    -0.360451337679E+04   -0.53552E-03   -0.25451E-01  5416   0.761E-01    0.325E+01
DAV: 161    -0.360456857164E+04   -0.55195E-01   -0.11646E+00  6056   0.154E+00    0.327E+01
DAV: 162    -0.360522330181E+04   -0.65473E+00   -0.39440E-01  5888   0.747E-01    0.384E+01
DAV: 163    -0.360506578089E+04    0.15752E+00   -0.12969E-01  5728   0.370E-01    0.379E+01
DAV: 164    -0.360486353215E+04    0.20225E+00   -0.71708E-02  5856   0.230E-01    0.349E+01
DAV: 165    -0.360499224359E+04   -0.12871E+00   -0.11678E-01  5704   0.445E-01    0.356E+01
DAV: 166    -0.360528527019E+04   -0.29303E+00   -0.62845E+00  6176   0.111E+00    0.290E+01
DAV: 167    -0.360493766389E+04    0.34761E+00   -0.76929E-01  5568   0.998E-01    0.305E+01
DAV: 168    -0.360546309667E+04   -0.52543E+00   -0.24753E-01  6008   0.580E-01    0.333E+01
DAV: 169    -0.360532071968E+04    0.14238E+00   -0.66834E-02  5560   0.252E-01    0.335E+01
DAV: 170    -0.360547929987E+04   -0.15858E+00   -0.63161E-02  5728   0.246E-01    0.341E+01
DAV: 171    -0.360423870428E+04    0.12406E+01   -0.24836E+00  5712   0.177E+00    0.277E+01
DAV: 172    -0.360488790306E+04   -0.64920E+00   -0.45702E-01  5712   0.970E-01    0.275E+01
DAV: 173    -0.360523615721E+04   -0.34825E+00   -0.51012E-01  6248   0.560E-01    0.276E+01
DAV: 174    -0.360524496031E+04   -0.88031E-02   -0.15056E-01  5704   0.370E-01    0.274E+01
DAV: 175    -0.360534162396E+04   -0.96664E-01   -0.18804E+00  5704   0.682E-01    0.280E+01
DAV: 176    -0.360616534523E+04   -0.82372E+00   -0.28045E+00  6016   0.150E+00    0.270E+01
DAV: 177    -0.360637191799E+04   -0.20657E+00   -0.79400E-01  5704   0.855E-01    0.214E+01
DAV: 178    -0.360600738589E+04    0.36453E+00   -0.16382E-01  5960   0.568E-01    0.207E+01
DAV: 179    -0.360561560708E+04    0.39178E+00   -0.19362E+00  6160   0.631E-01    0.204E+01
DAV: 180    -0.360591399770E+04   -0.29839E+00   -0.13507E-01  5888   0.457E-01    0.198E+01
DAV: 181    -0.360939761880E+04   -0.34836E+01   -0.18096E+01  6248   0.359E+00    0.410E+01
DAV: 182    -0.360667600606E+04    0.27216E+01   -0.34187E+00  5768   0.227E+00    0.212E+01
DAV: 183    -0.360638935530E+04    0.28665E+00   -0.11130E+00  5920   0.109E+00    0.214E+01
DAV: 184    -0.360665772780E+04   -0.26837E+00   -0.27510E-01  6112   0.729E-01    0.228E+01
DAV: 185    -0.360674281223E+04   -0.85084E-01   -0.11935E-01  5736   0.419E-01    0.224E+01
DAV: 186    -0.360749627231E+04   -0.75346E+00   -0.84284E-01  6136   0.180E+00    0.194E+01
DAV: 187    -0.360780979876E+04   -0.31353E+00   -0.34975E+00  5896   0.106E+00    0.247E+01
DAV: 188    -0.360745011683E+04    0.35968E+00   -0.30133E-01  5752   0.574E-01    0.193E+01
DAV: 189    -0.360762528939E+04   -0.17517E+00   -0.15130E-01  5824   0.279E-01    0.196E+01
DAV: 190    -0.360770884650E+04   -0.83557E-01   -0.56750E-02  5752   0.210E-01    0.201E+01
DAV: 191    -0.360758881445E+04    0.12003E+00   -0.52818E-02  5912   0.316E-01    0.192E+01
DAV: 192    -0.360780673407E+04   -0.21792E+00   -0.59953E-02  6304   0.241E-01    0.199E+01
DAV: 193    -0.360772183915E+04    0.84895E-01   -0.20175E-01  5776   0.233E-01    0.197E+01
DAV: 194    -0.360771193432E+04    0.99048E-02   -0.16741E-01  5656   0.250E-01    0.183E+01
DAV: 195    -0.360837051598E+04   -0.65858E+00   -0.11331E+00  5944   0.482E-01    0.216E+01
DAV: 196    -0.360822484124E+04    0.14567E+00   -0.40968E-01  5872   0.765E-01    0.193E+01
DAV: 197    -0.360771155862E+04    0.51328E+00   -0.10356E+00  6144   0.467E-01    0.145E+01
DAV: 198    -0.360789157498E+04   -0.18002E+00   -0.12920E+00  5800   0.425E-01    0.126E+01
DAV: 199    -0.360802982682E+04   -0.13825E+00   -0.98317E-02  5744   0.568E-01    0.125E+01
DAV: 200    -0.360802394604E+04    0.58808E-02   -0.78091E-02  6312   0.540E-01    0.125E+01
DAV: 201    -0.360846364469E+04   -0.43970E+00   -0.17914E+00  6272   0.152E+00    0.179E+01
DAV: 202    -0.360769479221E+04    0.76885E+00   -0.10524E+00  5784   0.127E+00    0.135E+01
DAV: 203    -0.360774335065E+04   -0.48558E-01   -0.13430E-01  5992   0.500E-01    0.133E+01
DAV: 204    -0.360772474804E+04    0.18603E-01   -0.47548E-02  6216   0.316E-01    0.133E+01
DAV: 205    -0.360772203363E+04    0.27144E-02   -0.18157E-02  6080   0.111E-01    0.134E+01
DAV: 206    -0.360767431721E+04    0.47716E-01   -0.10579E-01  6360   0.786E-01    0.136E+01
DAV: 207    -0.360762934078E+04    0.44976E-01   -0.60585E-02  6080   0.267E-01    0.136E+01
DAV: 208    -0.360761364085E+04    0.15700E-01   -0.32459E-02  6792   0.373E-01    0.141E+01
DAV: 209    -0.360771848230E+04   -0.10484E+00   -0.54961E-02  6072   0.443E-01    0.136E+01
DAV: 210    -0.360779084489E+04   -0.72363E-01   -0.54722E-02  6208   0.437E-01    0.135E+01
DAV: 211    -0.360807559005E+04   -0.28475E+00   -0.23145E+00  6184   0.112E+00    0.183E+01
DAV: 212    -0.360790005582E+04    0.17553E+00   -0.21864E-01  5536   0.429E-01    0.169E+01
DAV: 213    -0.360791488113E+04   -0.14825E-01   -0.24731E-02  6024   0.149E-01    0.167E+01
DAV: 214    -0.360786126337E+04    0.53618E-01   -0.12449E-02  6064   0.104E-01    0.165E+01
DAV: 215    -0.360777099650E+04    0.90267E-01   -0.41913E-02  6272   0.121E-01    0.150E+01
DAV: 216    -0.360782627602E+04   -0.55280E-01   -0.39595E+00  6224   0.927E-01    0.126E+01
DAV: 217    -0.360795195310E+04   -0.12568E+00   -0.20487E-01  6240   0.556E-01    0.121E+01
DAV: 218    -0.360801942611E+04   -0.67473E-01   -0.11663E-01  6384   0.531E-01    0.118E+01
DAV: 219    -0.360818024758E+04   -0.16082E+00   -0.10543E-01  6376   0.513E-01    0.115E+01
DAV: 220    -0.360845612128E+04   -0.27587E+00   -0.13609E-01  6408   0.719E-01    0.105E+01
DAV: 221    -0.360849755357E+04   -0.41432E-01   -0.12220E+00  6200   0.223E+00    0.872E+00
DAV: 222    -0.360851832250E+04   -0.20769E-01   -0.12632E+00  6016   0.111E+00    0.131E+01
DAV: 223    -0.360834822536E+04    0.17010E+00   -0.46074E-01  6088   0.665E-01    0.834E+00
DAV: 224    -0.360837533284E+04   -0.27107E-01   -0.44820E-01  6256   0.590E-01    0.126E+01
DAV: 225    -0.360820694358E+04    0.16839E+00   -0.16513E-01  6248   0.574E-01    0.104E+01
DAV: 226    -0.360827386675E+04   -0.66923E-01   -0.33782E-01  5928   0.698E-01    0.689E+00
DAV: 227    -0.360834281761E+04   -0.68951E-01   -0.81682E-02  5808   0.301E-01    0.652E+00
DAV: 228    -0.360839098821E+04   -0.48171E-01   -0.55820E-02  6272   0.382E-01    0.600E+00
DAV: 229    -0.360848134951E+04   -0.90361E-01   -0.99491E-02  6528   0.557E-01    0.583E+00
DAV: 230    -0.360856284234E+04   -0.81493E-01   -0.71041E-02  6304   0.429E-01    0.585E+00
DAV: 231    -0.361009421298E+04   -0.15314E+01   -0.95479E+00  6432   0.166E+00    0.152E+01
DAV: 232    -0.360974015507E+04    0.35406E+00   -0.29566E-01  5720   0.825E-01    0.131E+01
DAV: 233    -0.360961121351E+04    0.12894E+00   -0.89039E-02  5792   0.430E-01    0.125E+01
DAV: 234    -0.360952980698E+04    0.81407E-01   -0.51214E-02  6360   0.383E-01    0.119E+01
DAV: 235    -0.360945897433E+04    0.70833E-01   -0.49521E-02  6520   0.387E-01    0.114E+01
DAV: 236    -0.360940915290E+04    0.49821E-01   -0.42629E-02  5864   0.303E-01    0.113E+01
DAV: 237    -0.360927830764E+04    0.13085E+00   -0.27032E-02  6416   0.311E-01    0.109E+01
DAV: 238    -0.360918325435E+04    0.95053E-01   -0.34673E-02  6512   0.299E-01    0.113E+01
DAV: 239    -0.360881687601E+04    0.36638E+00   -0.88275E-02  5688   0.450E-01    0.115E+01
DAV: 240    -0.360889638182E+04   -0.79506E-01   -0.16451E-02  5688   0.110E-01    0.110E+01
DAV: 241    -0.360914896187E+04   -0.25258E+00   -0.11193E-01  6200   0.500E-01    0.142E+01
DAV: 242    -0.360906351557E+04    0.85446E-01   -0.55529E-02  5528   0.371E-01    0.139E+01
DAV: 243    -0.360917221020E+04   -0.10869E+00   -0.40182E-02  6472   0.408E-01    0.105E+01
DAV: 244    -0.360941983420E+04   -0.24762E+00   -0.46564E-02  6152   0.375E-01    0.944E+00
DAV: 245    -0.360946758584E+04   -0.47752E-01   -0.61874E-02  5480   0.247E-01    0.924E+00
DAV: 246    -0.360961460559E+04   -0.14702E+00   -0.12515E-01  5992   0.499E-01    0.829E+00
DAV: 247    -0.360960937694E+04    0.52287E-02   -0.35396E-02  5728   0.307E-01    0.794E+00
DAV: 248    -0.360965755185E+04   -0.48175E-01   -0.18209E-02  6272   0.250E-01    0.752E+00
DAV: 249    -0.360981538421E+04   -0.15783E+00   -0.22942E-02  6280   0.323E-01    0.679E+00
DAV: 250    -0.360991023333E+04   -0.94849E-01   -0.30760E-02  6096   0.289E-01    0.617E+00
DAV: 251    -0.361002886072E+04   -0.11863E+00   -0.49053E-02  6320   0.469E-01    0.448E+00
DAV: 252    -0.361009646500E+04   -0.67604E-01   -0.69214E-02  6200   0.361E-01    0.356E+00
DAV: 253    -0.361010839129E+04   -0.11926E-01   -0.37938E-02  6096   0.246E-01    0.318E+00
DAV: 254    -0.361010070132E+04    0.76900E-02   -0.13143E-02  5856   0.101E-01    0.319E+00
DAV: 255    -0.361012352930E+04   -0.22828E-01   -0.57743E-03  6088   0.168E-01    0.347E+00
DAV: 256    -0.361015766271E+04   -0.34133E-01   -0.96362E-02  6320   0.457E-01    0.549E+00
DAV: 257    -0.361011050181E+04    0.47161E-01   -0.55651E-02  5576   0.210E-01    0.501E+00
DAV: 258    -0.361010772426E+04    0.27776E-02   -0.47964E-03  5928   0.675E-02    0.510E+00
DAV: 259    -0.361010575827E+04    0.19660E-02   -0.50857E-04  5792   0.239E-02    0.507E+00
DAV: 260    -0.361010908718E+04   -0.33289E-02   -0.18726E-03  5928   0.243E-02    0.523E+00
DAV: 261    -0.361029044218E+04   -0.18136E+00   -0.25392E-01  6064   0.371E-01    0.734E+00
DAV: 262    -0.361027290010E+04    0.17542E-01   -0.19574E-02  5792   0.122E-01    0.816E+00
DAV: 263    -0.361026622873E+04    0.66714E-02   -0.27202E-03  5672   0.509E-02    0.851E+00
DAV: 264    -0.361027332394E+04   -0.70952E-02   -0.19183E-03  5968   0.494E-02    0.862E+00
DAV: 265    -0.361028358725E+04   -0.10263E-01   -0.10169E-03  5752   0.338E-02    0.889E+00
DAV: 266    -0.361025187549E+04    0.31712E-01   -0.22452E-02  5888   0.849E-02    0.771E+00
DAV: 267    -0.361026793752E+04   -0.16062E-01   -0.43104E-02  5448   0.916E-02    0.739E+00
DAV: 268    -0.361026835783E+04   -0.42031E-03   -0.12834E-02  5208   0.115E-01    0.782E+00
DAV: 269    -0.361028597239E+04   -0.17615E-01   -0.13701E-02  5632   0.937E-02    0.877E+00
DAV: 270    -0.361030577462E+04   -0.19802E-01   -0.75022E-03  5240   0.857E-02    0.966E+00
DAV: 271    -0.361027747301E+04    0.28302E-01   -0.16318E-02  5408   0.987E-02    0.934E+00
DAV: 272    -0.361027230607E+04    0.51669E-02   -0.10647E-03  5880   0.334E-02    0.915E+00
DAV: 273    -0.361027654184E+04   -0.42358E-02   -0.46701E-04  5560   0.336E-02    0.908E+00
DAV: 274    -0.361030132757E+04   -0.24786E-01   -0.98897E-04  6192   0.655E-02    0.947E+00
DAV: 275    -0.361029167012E+04    0.96574E-02   -0.83175E-04  5408   0.302E-02    0.949E+00
DAV: 276    -0.361018316581E+04    0.10850E+00   -0.66888E-01  6200   0.347E-01    0.696E+00
DAV: 277    -0.361019467848E+04   -0.11513E-01   -0.78770E-02  5216   0.291E-01    0.783E+00
DAV: 278    -0.361016791677E+04    0.26762E-01   -0.10936E-02  5720   0.123E-01    0.820E+00
DAV: 279    -0.361012670886E+04    0.41208E-01   -0.25836E-03  6088   0.806E-02    0.774E+00
DAV: 280    -0.361010207493E+04    0.24634E-01   -0.87074E-03  6000   0.601E-02    0.643E+00
DAV: 281    -0.361006954065E+04    0.32534E-01   -0.23801E-01  6256   0.187E-01    0.146E+00
DAV: 282    -0.361013587228E+04   -0.66332E-01   -0.10378E-01  5512   0.277E-01    0.145E+00
DAV: 283    -0.361014562266E+04   -0.97504E-02   -0.13967E-02  5976   0.228E-01    0.151E+00
DAV: 284    -0.361014557505E+04    0.47611E-04   -0.62493E-03  6192   0.221E-01    0.146E+00
DAV: 285    -0.361014632751E+04   -0.75246E-03   -0.76286E-03  6288   0.203E-01    0.151E+00
DAV: 286    -0.361014453139E+04    0.17961E-02   -0.93873E-03  6168   0.128E-01    0.156E+00
DAV: 287    -0.361014568909E+04   -0.11577E-02   -0.30276E-03  5904   0.543E-02    0.154E+00
DAV: 288    -0.361014599860E+04   -0.30950E-03   -0.37003E-04  6432   0.421E-02    0.150E+00
DAV: 289    -0.361014596004E+04    0.38553E-04   -0.38710E-03  6496   0.163E-01    0.143E+00
DAV: 290    -0.361014542977E+04    0.53028E-03   -0.39348E-03  6176   0.117E-01    0.145E+00
DAV: 291    -0.361014044080E+04    0.49890E-02   -0.40655E-03  6232   0.146E-01    0.146E+00
DAV: 292    -0.361013880797E+04    0.16328E-02   -0.38222E-03  5992   0.744E-02    0.154E+00
DAV: 293    -0.361014077407E+04   -0.19661E-02   -0.68874E-04  6024   0.382E-02    0.151E+00
DAV: 294    -0.361014320818E+04   -0.24341E-02   -0.62444E-04  5872   0.406E-02    0.144E+00
DAV: 295    -0.361014727008E+04   -0.40619E-02   -0.41850E-03  5984   0.101E-01    0.126E+00
DAV: 296    -0.361014477353E+04    0.24965E-02   -0.10637E-02  6152   0.168E-01    0.120E+00
DAV: 297    -0.361014453725E+04    0.23628E-03   -0.53785E-03  5672   0.127E-01    0.108E+00
DAV: 298    -0.361014248627E+04    0.20510E-02   -0.21213E-03  6088   0.119E-01    0.101E+00
DAV: 299    -0.361014101331E+04    0.14730E-02   -0.25675E-03  6168   0.840E-02    0.945E-01
DAV: 300    -0.361014091848E+04    0.94827E-04   -0.15635E-03  6152   0.619E-02    0.927E-01
DAV: 301    -0.361014068563E+04    0.23285E-03   -0.11088E-03  6016   0.593E-02    0.905E-01
DAV: 302    -0.361013849917E+04    0.21865E-02   -0.12886E-03  5864   0.878E-02    0.853E-01
DAV: 303    -0.361013751617E+04    0.98300E-03   -0.91999E-04  6104   0.340E-02    0.828E-01
DAV: 304    -0.361013709767E+04    0.41849E-03   -0.17340E-04  5904   0.152E-02    0.819E-01
DAV: 305    -0.361013600188E+04    0.10958E-02   -0.89803E-05  6616   0.271E-02    0.795E-01
DAV: 306    -0.361012983646E+04    0.61654E-02   -0.37406E-03  6048   0.119E-01    0.748E-01
DAV: 307    -0.361013046122E+04   -0.62476E-03   -0.15426E-03  5848   0.506E-02    0.693E-01
DAV: 308    -0.361013020371E+04    0.25751E-03   -0.32870E-04  6168   0.165E-02    0.681E-01
DAV: 309    -0.361013010079E+04    0.10292E-03   -0.35338E-05  5856   0.506E-03    0.678E-01
DAV: 310    -0.361013010262E+04   -0.18314E-05   -0.42500E-06  5096   0.163E-03    0.678E-01
DAV: 311    -0.361012913950E+04    0.96313E-03   -0.41728E-03  5888   0.869E-02    0.868E-01
DAV: 312    -0.361012887148E+04    0.26801E-03   -0.69972E-04  5408   0.391E-02    0.806E-01
DAV: 313    -0.361013031937E+04   -0.14479E-02   -0.12778E-03  6248   0.507E-02    0.767E-01
DAV: 314    -0.361013257292E+04   -0.22536E-02   -0.67188E-04  6296   0.479E-02    0.804E-01
DAV: 315    -0.361013502254E+04   -0.24496E-02   -0.79463E-04  6400   0.494E-02    0.845E-01
DAV: 316    -0.361014417643E+04   -0.91539E-02   -0.66894E-03  6408   0.182E-01    0.107E+00
DAV: 317    -0.361014298647E+04    0.11900E-02   -0.39586E-03  5952   0.825E-02    0.103E+00
DAV: 318    -0.361014056054E+04    0.24259E-02   -0.59260E-04  6392   0.575E-02    0.987E-01
DAV: 319    -0.361013820495E+04    0.23556E-02   -0.74017E-04  6464   0.655E-02    0.955E-01
DAV: 320    -0.361013704099E+04    0.11640E-02   -0.68128E-04  6312   0.507E-02    0.947E-01
DAV: 321    -0.361021129184E+04   -0.74251E-01   -0.40472E-02  6704   0.562E-01    0.914E+00
DAV: 322    -0.361020152213E+04    0.97697E-02   -0.66411E-02  5616   0.260E-01    0.998E+00
DAV: 323    -0.361010582681E+04    0.95695E-01   -0.13130E-02  5776   0.176E-01    0.940E+00
DAV: 324    -0.361011098421E+04   -0.51574E-02   -0.31922E-03  5960   0.576E-02    0.950E+00
DAV: 325    -0.361012182216E+04   -0.10838E-01   -0.56836E-04  6112   0.225E-02    0.976E+00
DAV: 326    -0.361012572285E+04   -0.39007E-02   -0.68042E-03  6312   0.219E-01    0.986E+00
DAV: 327    -0.361006861676E+04    0.57106E-01   -0.41061E-02  6192   0.124E-01    0.764E+00
DAV: 328    -0.361008290955E+04   -0.14293E-01   -0.56042E-03  5528   0.697E-02    0.665E+00
DAV: 329    -0.361009115756E+04   -0.82480E-02   -0.24259E-03  5736   0.420E-02    0.577E+00
DAV: 330    -0.361009519936E+04   -0.40418E-02   -0.52335E-03  5408   0.429E-02    0.512E+00
DAV: 331    -0.361011277705E+04   -0.17578E-01   -0.68438E-03  5944   0.705E-02    0.656E+00
DAV: 332    -0.361011344611E+04   -0.66906E-03   -0.24677E-03  5552   0.613E-02    0.778E+00
DAV: 333    -0.361008149238E+04    0.31954E-01   -0.31554E-03  5584   0.104E-01    0.628E+00
DAV: 334    -0.361007704691E+04    0.44455E-02   -0.51215E-02  6032   0.690E-02    0.363E+00
DAV: 335    -0.361009113838E+04   -0.14091E-01   -0.15138E-02  5264   0.107E-01    0.160E+00
DAV: 336    -0.361011449780E+04   -0.23359E-01   -0.12589E-02  5576   0.122E-01    0.188E+00
DAV: 337    -0.361011464373E+04   -0.14593E-03   -0.21786E-03  5712   0.673E-02    0.138E+00
DAV: 338    -0.361011760932E+04   -0.29656E-02   -0.91372E-04  5736   0.413E-02    0.102E+00
DAV: 339    -0.361011965035E+04   -0.20410E-02   -0.18249E-03  5688   0.397E-02    0.652E-01
DAV: 340    -0.361012225122E+04   -0.26009E-02   -0.47384E-03  5728   0.590E-02    0.509E-01
DAV: 341    -0.361012401102E+04   -0.17598E-02   -0.16959E-03  5528   0.536E-02    0.559E-01
DAV: 342    -0.361012321641E+04    0.79461E-03   -0.74727E-04  5768   0.310E-02    0.522E-01
DAV: 343    -0.361012360193E+04   -0.38552E-03   -0.20635E-04  5568   0.146E-02    0.533E-01
DAV: 344    -0.361012361004E+04   -0.81105E-05   -0.19184E-05  5984   0.430E-03    0.535E-01
DAV: 345    -0.361012359487E+04    0.15174E-04   -0.39117E-06  4936   0.231E-03    0.543E-01
DAV: 346    -0.361012263674E+04    0.95813E-03   -0.24520E-04  5784   0.364E-02    0.579E-01
DAV: 347    -0.361012214819E+04    0.48855E-03   -0.24731E-04  6208   0.233E-02    0.629E-01
DAV: 348    -0.361012241912E+04   -0.27092E-03   -0.99008E-05  5688   0.101E-02    0.618E-01
DAV: 349    -0.361012168268E+04    0.73643E-03   -0.54589E-05  5600   0.157E-02    0.638E-01
DAV: 350    -0.361012217836E+04   -0.49568E-03   -0.68331E-05  5552   0.212E-02    0.600E-01
DAV: 351    -0.361012562626E+04   -0.34479E-02   -0.34196E-03  6040   0.115E-01    0.616E-01
DAV: 352    -0.361012472335E+04    0.90291E-03   -0.15388E-03  5376   0.626E-02    0.553E-01
DAV: 353    -0.361012528811E+04   -0.56476E-03   -0.49224E-04  5344   0.285E-02    0.409E-01
DAV: 354    -0.361012590833E+04   -0.62022E-03   -0.47220E-04  5952   0.277E-02    0.254E-01
DAV: 355    -0.361012627968E+04   -0.37135E-03   -0.25259E-04  5464   0.247E-02    0.155E-01
DAV: 356    -0.361012621669E+04    0.62991E-04   -0.30210E-04  5640   0.240E-02    0.175E-01
DAV: 357    -0.361012647399E+04   -0.25730E-03   -0.20407E-04  5624   0.233E-02    0.120E-01
DAV: 358    -0.361012648564E+04   -0.11656E-04   -0.14495E-04  6160   0.170E-02    0.139E-01
DAV: 359    -0.361012650822E+04   -0.22581E-04   -0.11968E-04  6056   0.149E-02    0.151E-01
DAV: 360    -0.361012654965E+04   -0.41429E-04   -0.10419E-04  6040   0.148E-02    0.162E-01
DAV: 361    -0.361012647796E+04    0.71687E-04   -0.81200E-05  5864   0.120E-02    0.184E-01
DAV: 362    -0.361012647154E+04    0.64249E-05   -0.55292E-05  5920   0.129E-02    0.202E-01
DAV: 363    -0.361012649978E+04   -0.28239E-04   -0.83960E-05  5760   0.131E-02    0.233E-01
DAV: 364    -0.361012653204E+04   -0.32258E-04   -0.96484E-05  5816   0.163E-02    0.312E-01
DAV: 365    -0.361012650973E+04    0.22307E-04   -0.98051E-05  5552   0.114E-02    0.366E-01
DAV: 366    -0.361012603511E+04    0.47462E-03   -0.14333E-04  5568   0.209E-02    0.276E-01
DAV: 367    -0.361012607922E+04   -0.44104E-04   -0.50736E-05  5456   0.859E-03    0.275E-01
DAV: 368    -0.361012601091E+04    0.68308E-04   -0.12332E-05  5824   0.704E-03    0.262E-01
DAV: 369    -0.361012598907E+04    0.21841E-04   -0.13723E-05  5560   0.587E-03    0.249E-01
DAV: 370    -0.361012600247E+04   -0.13407E-04   -0.95902E-06  5120   0.283E-03    0.250E-01
DAV: 371    -0.361012600697E+04   -0.44988E-05   -0.13057E-04  5352   0.143E-02    0.223E-01
DAV: 372    -0.361012600252E+04    0.44557E-05   -0.28245E-05  5744   0.521E-03    0.221E-01
DAV: 373    -0.361012601144E+04   -0.89223E-05   -0.50506E-06  4912   0.271E-03    0.222E-01
DAV: 374    -0.361012602511E+04   -0.13673E-04   -0.19736E-06  4464   0.205E-03    0.223E-01
DAV: 375    -0.361012610602E+04   -0.80905E-04   -0.70837E-05  5768   0.113E-02    0.241E-01
DAV: 376    -0.361012633699E+04   -0.23097E-03   -0.20324E-04  5840   0.239E-02    0.330E-01
DAV: 377    -0.361012631192E+04    0.25075E-04   -0.12135E-04  5328   0.121E-02    0.357E-01
DAV: 378    -0.361012622526E+04    0.86657E-04   -0.16045E-05  5304   0.475E-03    0.348E-01
DAV: 379    -0.361012626540E+04   -0.40147E-04   -0.33262E-06  4768   0.341E-03    0.366E-01
DAV: 380    -0.361012624395E+04    0.21458E-04   -0.23666E-06  4488   0.174E-03    0.369E-01
DAV: 381    -0.361012662776E+04   -0.38381E-03   -0.12742E-02  5880   0.106E-01    0.229E-01
DAV: 382    -0.361012689138E+04   -0.26363E-03   -0.12746E-03  5632   0.342E-02    0.164E-01
DAV: 383    -0.361012691073E+04   -0.19350E-04   -0.51662E-04  6248   0.281E-02    0.144E-01
DAV: 384    -0.361012699335E+04   -0.82615E-04   -0.17939E-04  5896   0.195E-02    0.148E-01
DAV: 385    -0.361012701436E+04   -0.21017E-04   -0.75957E-05  6120   0.111E-02    0.147E-01
DAV: 386    -0.361012696141E+04    0.52956E-04   -0.29889E-05  5848   0.798E-03    0.138E-01
DAV: 387    -0.361012691658E+04    0.44824E-04   -0.13708E-05  5896   0.686E-03    0.130E-01
DAV: 388    -0.361012683964E+04    0.76949E-04   -0.14990E-05  6112   0.110E-02    0.115E-01
DAV: 389    -0.361012675668E+04    0.82953E-04   -0.33742E-05  6264   0.140E-02    0.986E-02
DAV: 390    -0.361012672838E+04    0.28301E-04   -0.47156E-05  6192   0.821E-03    0.905E-02
DAV: 391    -0.361012671754E+04    0.10843E-04   -0.15659E-05  5752   0.416E-03    0.858E-02
DAV: 392    -0.361012672803E+04   -0.10487E-04   -0.39919E-06  4736   0.280E-03    0.881E-02
DAV: 393    -0.361012673068E+04   -0.26515E-05   -0.72107E-07  4208   0.855E-04    0.889E-02
DAV: 394    -0.361012672958E+04    0.11014E-05   -0.16571E-07  2976   0.492E-04    0.884E-02
DAV: 395    -0.361012671200E+04    0.17577E-04   -0.19597E-06  4648   0.403E-03    0.812E-02
DAV: 396    -0.361012668112E+04    0.30876E-04   -0.10279E-05  6056   0.781E-03    0.695E-02
DAV: 397    -0.361012666198E+04    0.19143E-04   -0.18345E-05  6440   0.637E-03    0.565E-02
DAV: 398    -0.361012663436E+04    0.27618E-04   -0.39149E-05  6216   0.134E-02    0.260E-02
DAV: 399    -0.361012663427E+04    0.86722E-07   -0.65050E-05  6392   0.108E-02    0.952E-03
DAV: 400    -0.361012663779E+04   -0.35183E-05   -0.33172E-05  5696   0.411E-03    0.921E-03
DAV: 401    -0.361012663695E+04    0.84155E-06   -0.53782E-07  4272   0.154E-03
 augmentation electrons    1804.874890107080     
 soft         electrons    0.000000000000000     
 total        electrons    1804.874890107080     
 augmentation electrons  -5.0721053480718863E-002
 soft         electrons    0.000000000000000     
 total        electrons  -5.0721053480718863E-002
 augmentation electrons    1897.599595284257     
 soft         electrons    0.000000000000000     
 total        electrons    1897.599595284257     
 augmentation electrons    1840.976563342258     
 soft         electrons    0.000000000000000     
 total        electrons    1840.976563342258     
 augmentation electrons    56.19579207038238     
 soft         electrons    1748.679011365346     
 total        electrons    1804.874803435728     
 augmentation electrons    23.59871242373617     
 soft         electrons    1748.679011365346     
 total        electrons    38.97630586862589     
 translations:            0            1            0
   1 F= -.36477589E+04 E0= -.36477543E+04  d E =-.364776E+04  mag=    39.0270
 curvature:   0.00 expect dE= 0.000E+00 dE for cont linesearch  0.000E+00
 trial: gam= 0.00000 g(F)=  0.180E+00 g(S)=  0.000E+00 ort = 0.000E+00 (trialstep = 0.100E+01)
 search vector abs. value=  0.180E+00
 bond charge predicted
       N       E                     dE             d eps       ncg     rms          rms(c)
DAV:   1    -0.361013169457E+04   -0.50568E-02   -0.14283E+01  5548   0.324E+00    0.231E+00
DAV:   2    -0.361025992231E+04   -0.12823E+00   -0.12832E+00  5872   0.720E-01    0.156E+00
DAV:   3    -0.361026140586E+04   -0.14835E-02   -0.67434E-02  6008   0.268E-01    0.113E+00
DAV:   4    -0.361025947363E+04    0.19322E-02   -0.27944E-02  6000   0.142E-01    0.651E-01
DAV:   5    -0.361025866938E+04    0.80425E-03   -0.26292E-03  5616   0.623E-02    0.436E-01
DAV:   6    -0.361025835422E+04    0.31516E-03   -0.28451E-03  6136   0.649E-02    0.424E-01
DAV:   7    -0.361025799626E+04    0.35797E-03   -0.62568E-03  5696   0.590E-02    0.293E-01
DAV:   8    -0.361025788223E+04    0.11402E-03   -0.24528E-03  6128   0.491E-02    0.127E-01
DAV:   9    -0.361025790245E+04   -0.20218E-04   -0.30310E-04  5416   0.212E-02    0.593E-02
DAV:  10    -0.361025790686E+04   -0.44100E-05   -0.88177E-05  5944   0.123E-02    0.290E-02
DAV:  11    -0.361025790616E+04    0.70174E-06   -0.19736E-05  5328   0.606E-03    0.159E-02
DAV:  12    -0.361025790464E+04    0.15211E-05   -0.62951E-06  4984   0.353E-03    0.840E-03
DAV:  13    -0.361025790403E+04    0.60648E-06   -0.21364E-06  4624   0.193E-03
 augmentation electrons    1804.893901995983     
 soft         electrons    0.000000000000000     
 total        electrons    1804.893901995983     
 augmentation electrons  -5.1018446067975766E-002
 soft         electrons    0.000000000000000     
 total        electrons  -5.1018446067975766E-002
 augmentation electrons    1867.534719288615     
 soft         electrons    0.000000000000000     
 total        electrons    1867.534719288615     
 augmentation electrons    1810.911687346615     
 soft         electrons    0.000000000000000     
 total        electrons    1810.911687346615     
 augmentation electrons    56.21519224209403     
 soft         electrons    1748.678632082281     
 total        electrons    1804.893824324375     
 augmentation electrons    23.61088318106520     
 soft         electrons    1748.678632082281     
 total        electrons    38.97071355872025     
 translations:            0            1            0
   2 F= -.36478896E+04 E0= -.36478857E+04  d E =-.130711E+00  mag=    39.0217
 trial-energy change:   -0.130711  1 .order   -0.131530   -0.180396   -0.082665
 step:   1.9371(harm=  1.8458)  dis= 0.03476  next Energy= -3647.927702 (dE=-0.169E+00)
 bond charge predicted
       N       E                     dE             d eps       ncg     rms          rms(c)
DAV:   1    -0.361018227041E+04    0.75634E-01   -0.12539E+01  5560   0.302E+00    0.216E+00
DAV:   2    -0.361029536502E+04   -0.11309E+00   -0.11265E+00  5880   0.685E-01    0.154E+00
DAV:   3    -0.361029531366E+04    0.51354E-04   -0.66275E-02  5976   0.265E-01    0.974E-01
DAV:   4    -0.361029398691E+04    0.13267E-02   -0.20066E-02  6048   0.118E-01    0.561E-01
DAV:   5    -0.361029337118E+04    0.61573E-03   -0.20827E-03  5720   0.535E-02    0.389E-01
DAV:   6    -0.361029306595E+04    0.30523E-03   -0.17349E-03  6040   0.507E-02    0.335E-01
DAV:   7    -0.361029278279E+04    0.28316E-03   -0.34616E-03  5784   0.497E-02    0.185E-01
DAV:   8    -0.361029282869E+04   -0.45903E-04   -0.14067E-03  5840   0.407E-02    0.128E-01
DAV:   9    -0.361029277657E+04    0.52120E-04   -0.26906E-04  5928   0.174E-02    0.297E-02
DAV:  10    -0.361029278452E+04   -0.79463E-05   -0.34879E-05  5944   0.648E-03    0.195E-02
DAV:  11    -0.361029278365E+04    0.87167E-06   -0.87913E-06  5016   0.391E-03
 augmentation electrons    1804.926338591310     
 soft         electrons    0.000000000000000     
 total        electrons    1804.926338591310     
 augmentation electrons  -5.1520801299173281E-002
 soft         electrons    0.000000000000000     
 total        electrons  -5.1520801299173281E-002
 augmentation electrons    1857.234807398996     
 soft         electrons    0.000000000000000     
 total        electrons    1857.234807398996     
 augmentation electrons    1800.611775456995     
 soft         electrons    0.000000000000000     
 total        electrons    1800.611775456995     
 augmentation electrons    56.24845616487386     
 soft         electrons    1748.677814244619     
 total        electrons    1804.926270409493     
 augmentation electrons    23.62009924546743     
 soft         electrons    1748.677814244619     
 total        electrons    38.96531315556712     
 translations:            0            1            0
   3 F= -.36479224E+04 E0= -.36479190E+04  d E =-.163440E+00  mag=    39.0168
 curvature:  -0.91 expect dE=-0.548E+00 dE for cont linesearch -0.483E-03
 trial: gam= 3.38447 g(F)=  0.601E+00 g(S)=  0.000E+00 ort =-0.977E-02 (trialstep = 0.824E-01)
 search vector abs. value=  0.260E+01
 bond charge predicted
       N       E                     dE             d eps       ncg     rms          rms(c)
DAV:   1    -0.361032067917E+04   -0.27895E-01   -0.14335E+00  5672   0.101E+00    0.756E-01
DAV:   2    -0.361033536249E+04   -0.14683E-01   -0.14434E-01  5856   0.231E-01    0.514E-01
DAV:   3    -0.361033560239E+04   -0.23990E-03   -0.85518E-03  5904   0.976E-02    0.367E-01
DAV:   4    -0.361033531762E+04    0.28477E-03   -0.25466E-03  5872   0.457E-02    0.193E-01
DAV:   5    -0.361033527506E+04    0.42562E-04   -0.31269E-04  5528   0.179E-02    0.132E-01
DAV:   6    -0.361033523332E+04    0.41745E-04   -0.13663E-04  6048   0.147E-02    0.989E-02
DAV:   7    -0.361033521427E+04    0.19047E-04   -0.17190E-04  5824   0.138E-02    0.460E-02
DAV:   8    -0.361033521705E+04   -0.27826E-05   -0.86320E-05  6064   0.994E-03    0.300E-02
DAV:   9    -0.361033521464E+04    0.24118E-05   -0.13475E-05  5352   0.508E-03    0.740E-03
DAV:  10    -0.361033521464E+04   -0.99681E-09   -0.15948E-06  4544   0.156E-03
 augmentation electrons    1804.938293225911     
 soft         electrons    0.000000000000000     
 total        electrons    1804.938293225911     
 augmentation electrons  -5.1438594909105601E-002
 soft         electrons    0.000000000000000     
 total        electrons  -5.1438594909105601E-002
 augmentation electrons    1855.007450593082     
 soft         electrons    0.000000000000000     
 total        electrons    1855.007450593082     
 augmentation electrons    1798.384418651081     
 soft         electrons    0.000000000000000     
 total        electrons    1798.384418651081     
 augmentation electrons    56.25972287723970     
 soft         electrons    1748.678504025132     
 total        electrons    1804.938226902372     
 augmentation electrons    23.62204183677154     
 soft         electrons    1748.678504025132     
 total        electrons    38.96434105321323     
 translations:            0            1            0
   4 F= -.36479637E+04 E0= -.36479605E+04  d E =-.413667E-01  mag=    39.0158
 ZBRENT: can't locate minimum, use default step
 trial-energy change:   -0.041367  1 .order   -0.042142   -0.046754   -0.037531
 step:   0.3294(harm=  0.4175)  dis= 0.02298  next Energy= -3648.040874 (dE=-0.119E+00)
 bond charge predicted
       N       E                     dE             d eps       ncg     rms          rms(c)
DAV:   1    -0.361027710444E+04    0.58110E-01   -0.12893E+01  5664   0.302E+00    0.227E+00
DAV:   2    -0.361040982291E+04   -0.13272E+00   -0.12990E+00  5864   0.688E-01    0.154E+00
DAV:   3    -0.361041097105E+04   -0.11481E-02   -0.74052E-02  5952   0.262E-01    0.948E-01
DAV:   4    -0.361040979714E+04    0.11739E-02   -0.18990E-02  6112   0.109E-01    0.554E-01
DAV:   5    -0.361040923820E+04    0.55894E-03   -0.18948E-03  5784   0.504E-02    0.397E-01
DAV:   6    -0.361040892688E+04    0.31132E-03   -0.23012E-03  6072   0.522E-02    0.330E-01
DAV:   7    -0.361040864721E+04    0.27967E-03   -0.33548E-03  5912   0.511E-02    0.184E-01
DAV:   8    -0.361040866523E+04   -0.18019E-04   -0.10561E-03  5872   0.360E-02    0.922E-02
DAV:   9    -0.361040866384E+04    0.13891E-05   -0.12256E-04  5896   0.118E-02    0.422E-02
DAV:  10    -0.361040865552E+04    0.83198E-05   -0.72142E-05  6160   0.799E-03    0.185E-02
DAV:  11    -0.361040865615E+04   -0.63465E-06   -0.12777E-05  5496   0.366E-03    0.920E-03
DAV:  12    -0.361040865554E+04    0.61782E-06   -0.17275E-06  4680   0.165E-03
 augmentation electrons    1804.966653735036     
 soft         electrons    0.000000000000000     
 total        electrons    1804.966653735036     
 augmentation electrons  -5.1510391914451503E-002
 soft         electrons    0.000000000000000     
 total        electrons  -5.1510391914451503E-002
 augmentation electrons    1860.201488676790     
 soft         electrons    0.000000000000000     
 total        electrons    1860.201488676790     
 augmentation electrons    1803.578456734790     
 soft         electrons    0.000000000000000     
 total        electrons    1803.578456734790     
 augmentation electrons    56.28671861828970     
 soft         electrons    1748.679870989440     
 total        electrons    1804.966589607730     
 augmentation electrons    23.62397368009000     
 soft         electrons    1748.679870989440     
 total        electrons    38.95915796747261     
 translations:            0            1            0
   5 F= -.36480328E+04 E0= -.36480297E+04  d E =-.110409E+00  mag=    39.0107
 curvature:  -0.89 expect dE=-0.108E+00 dE for cont linesearch -0.520E-02
 ZBRENT: extrapolating
 opt :   0.4210  next Energy= -3648.038422 (dE=-0.116E+00)
 bond charge predicted
       N       E                     dE             d eps       ncg     rms          rms(c)
DAV:   1    -0.361039750577E+04    0.11150E-01   -0.17708E+00  5648   0.112E+00    0.836E-01
DAV:   2    -0.361041570698E+04   -0.18201E-01   -0.17827E-01  5856   0.252E-01    0.561E-01
DAV:   3    -0.361041591875E+04   -0.21177E-03   -0.12946E-02  5864   0.108E-01    0.363E-01
DAV:   4    -0.361041568047E+04    0.23827E-03   -0.18902E-03  6032   0.406E-02    0.182E-01
DAV:   5    -0.361041563811E+04    0.42360E-04   -0.22752E-04  6064   0.150E-02    0.144E-01
DAV:   6    -0.361041560109E+04    0.37025E-04   -0.18878E-04  5864   0.142E-02    0.121E-01
DAV:   7    -0.361041556868E+04    0.32406E-04   -0.21314E-04  6024   0.177E-02    0.530E-02
DAV:   8    -0.361041557097E+04   -0.22852E-05   -0.69657E-05  5792   0.870E-03    0.168E-02
DAV:   9    -0.361041557135E+04   -0.38645E-06   -0.67684E-06  5064   0.323E-03
 augmentation electrons    1804.976582191165     
 soft         electrons    0.000000000000000     
 total        electrons    1804.976582191165     
 augmentation electrons  -5.1498473029339797E-002
 soft         electrons    0.000000000000000     
 total        electrons  -5.1498473029339797E-002
 augmentation electrons    1869.904337425628     
 soft         electrons    0.000000000000000     
 total        electrons    1869.904337425628     
 augmentation electrons    1813.281305483628     
 soft         electrons    0.000000000000000     
 total        electrons    1813.281305483628     
 augmentation electrons    56.29629979346256     
 soft         electrons    1748.680217754580     
 total        electrons    1804.976517548042     
 augmentation electrons    23.62262828361938     
 soft         electrons    1748.680217754580     
 total        electrons    38.95570057519896     
 translations:            0            1            0
   6 F= -.36480376E+04 E0= -.36480345E+04  d E =-.115192E+00  mag=    39.0072
 curvature:  -0.97 expect dE=-0.133E+00 dE for cont linesearch -0.112E-05
 trial: gam= 0.19401 g(F)=  0.138E+00 g(S)=  0.000E+00 ort = 0.174E-02 (trialstep = 0.150E+00)
 search vector abs. value=  0.236E+00
 bond charge predicted
       N       E                     dE             d eps       ncg     rms          rms(c)
DAV:   1    -0.361042539509E+04   -0.98241E-02   -0.56684E-01  5784   0.784E-01    0.460E-01
DAV:   2    -0.361043240089E+04   -0.70058E-02   -0.66866E-02  5920   0.145E-01    0.268E-01
DAV:   3    -0.361043262723E+04   -0.22634E-03   -0.34441E-03  5816   0.527E-02    0.195E-01
DAV:   4    -0.361043253433E+04    0.92897E-04   -0.52923E-04  6088   0.232E-02    0.100E-01
DAV:   5    -0.361043251757E+04    0.16757E-04   -0.74507E-05  5688   0.107E-02    0.691E-02
DAV:   6    -0.361043249951E+04    0.18062E-04   -0.81798E-05  5776   0.104E-02    0.387E-02
DAV:   7    -0.361043249960E+04   -0.91946E-07   -0.33523E-05  5872   0.565E-03    0.108E-02
DAV:   8    -0.361043250014E+04   -0.53589E-06   -0.31867E-06  4600   0.230E-03
 augmentation electrons    1804.980913040420     
 soft         electrons    0.000000000000000     
 total        electrons    1804.980913040420     
 augmentation electrons  -5.1673028206814908E-002
 soft         electrons    0.000000000000000     
 total        electrons  -5.1673028206814908E-002
 augmentation electrons    1877.290036264751     
 soft         electrons    0.000000000000000     
 total        electrons    1877.290036264751     
 augmentation electrons    1820.667004322750     
 soft         electrons    0.000000000000000     
 total        electrons    1820.667004322750     
 augmentation electrons    56.30052231619221     
 soft         electrons    1748.680325912065     
 total        electrons    1804.980848228258     
 augmentation electrons    23.62081216833787     
 soft         electrons    1748.680325912065     
 total        electrons    38.95483732857934     
 translations:            0            1            0
   7 F= -.36480534E+04 E0= -.36480503E+04  d E =-.158728E-01  mag=    39.0065
 trial-energy change:   -0.015873  1 .order   -0.016674   -0.020736   -0.012612
 step:   0.3831(harm=  0.3831)  dis= 0.00736  next Energy= -3648.064025 (dE=-0.265E-01)
 bond charge predicted
       N       E                     dE             d eps       ncg     rms          rms(c)
DAV:   1    -0.361042543552E+04    0.70641E-02   -0.13646E+00  5760   0.122E+00    0.710E-01
DAV:   2    -0.361044223749E+04   -0.16802E-01   -0.15960E-01  5888   0.219E-01    0.360E-01
DAV:   3    -0.361044274493E+04   -0.50744E-03   -0.58774E-03  5696   0.623E-02    0.197E-01
DAV:   4    -0.361044268046E+04    0.64474E-04   -0.47685E-04  6328   0.235E-02    0.134E-01
DAV:   5    -0.361044262731E+04    0.53145E-04   -0.17473E-04  5912   0.138E-02    0.108E-01
DAV:   6    -0.361044259949E+04    0.27824E-04   -0.23381E-04  5952   0.190E-02    0.794E-02
DAV:   7    -0.361044259095E+04    0.85367E-05   -0.96442E-05  5800   0.107E-02    0.241E-02
DAV:   8    -0.361044259280E+04   -0.18462E-05   -0.16600E-05  5560   0.472E-03    0.128E-02
DAV:   9    -0.361044259273E+04    0.69776E-07   -0.29555E-06  4392   0.230E-03
 augmentation electrons    1804.982327828144     
 soft         electrons    0.000000000000000     
 total        electrons    1804.982327828144     
 augmentation electrons  -5.1658084576332780E-002
 soft         electrons    0.000000000000000     
 total        electrons  -5.1658084576332780E-002
 augmentation electrons    1885.336684182754     
 soft         electrons    0.000000000000000     
 total        electrons    1885.336684182754     
 augmentation electrons    1828.713652240754     
 soft         electrons    0.000000000000000     
 total        electrons    1828.713652240754     
 augmentation electrons    56.30175628559054     
 soft         electrons    1748.680506177517     
 total        electrons    1804.982262463108     
 augmentation electrons    23.61831559049349     
 soft         electrons    1748.680506177517     
 total        electrons    38.95383575143708     
 translations:            0            1            0
   8 F= -.36480619E+04 E0= -.36480587E+04  d E =-.242964E-01  mag=    39.0055
 curvature:  -0.33 expect dE=-0.255E-01 dE for cont linesearch -0.547E-05
 trial: gam= 0.57342 g(F)=  0.778E-01 g(S)=  0.000E+00 ort =-0.199E-02 (trialstep = 0.197E+00)
 search vector abs. value=  0.153E+00
 bond charge predicted
       N       E                     dE             d eps       ncg     rms          rms(c)
DAV:   1    -0.361044248736E+04    0.10544E-03   -0.67610E-01  5952   0.844E-01    0.618E-01
DAV:   2    -0.361045602377E+04   -0.13536E-01   -0.12256E-01  5392   0.145E-01    0.283E-01
DAV:   3    -0.361045667429E+04   -0.65052E-03   -0.42879E-03  5520   0.379E-02    0.136E-01
DAV:   4    -0.361045666462E+04    0.96632E-05   -0.27311E-04  6320   0.146E-02    0.102E-01
DAV:   5    -0.361045665349E+04    0.11129E-04   -0.46320E-05  6008   0.680E-03    0.892E-02
DAV:   6    -0.361045663672E+04    0.16778E-04   -0.94158E-05  5720   0.121E-02    0.537E-02
DAV:   7    -0.361045663731E+04   -0.59688E-06   -0.52133E-05  5856   0.768E-03    0.227E-02
DAV:   8    -0.361045663766E+04   -0.34498E-06   -0.12170E-05  5360   0.412E-03    0.102E-02
DAV:   9    -0.361045663773E+04   -0.75590E-07   -0.15709E-06  4136   0.159E-03
 augmentation electrons    1804.970075642506     
 soft         electrons    0.000000000000000     
 total        electrons    1804.970075642506     
 augmentation electrons  -5.1634457754661030E-002
 soft         electrons    0.000000000000000     
 total        electrons  -5.1634457754661030E-002
 augmentation electrons    1883.418201030827     
 soft         electrons    0.000000000000000     
 total        electrons    1883.418201030827     
 augmentation electrons    1826.795169088826     
 soft         electrons    0.000000000000000     
 total        electrons    1826.795169088826     
 augmentation electrons    56.28933662589816     
 soft         electrons    1748.680673085519     
 total        electrons    1804.970009711417     
 augmentation electrons    23.61556938665246     
 soft         electrons    1748.680673085519     
 total        electrons    38.95415098870064     
 translations:            0            1            0
   9 F= -.36480749E+04 E0= -.36480717E+04  d E =-.130759E-01  mag=    39.0058
 ZBRENT: can't locate minimum, use default step
 trial-energy change:   -0.013076  1 .order   -0.013555   -0.015082   -0.012027
 step:   0.7867(harm=  0.9711)  dis= 0.01549  next Energy= -3648.099092 (dE=-0.372E-01)
 bond charge predicted
       N       E                     dE             d eps       ncg     rms          rms(c)
DAV:   1    -0.361035298750E+04    0.10365E+00   -0.60823E+00  5904   0.253E+00    0.188E+00
DAV:   2    -0.361047608209E+04   -0.12309E+00   -0.11122E+00  5496   0.438E-01    0.104E+00
DAV:   3    -0.361048282055E+04   -0.67385E-02   -0.48133E-02  5832   0.142E-01    0.849E-01
DAV:   4    -0.361048110662E+04    0.17139E-02   -0.93468E-03  5800   0.917E-02    0.416E-01
DAV:   5    -0.361048125932E+04   -0.15270E-03   -0.11159E-03  5536   0.363E-02    0.296E-01
DAV:   6    -0.361048113046E+04    0.12886E-03   -0.55056E-04  5976   0.327E-02    0.207E-01
DAV:   7    -0.361048113020E+04    0.25475E-06   -0.73813E-04  5512   0.285E-02    0.137E-01
DAV:   8    -0.361048107994E+04    0.50264E-04   -0.31130E-04  5960   0.173E-02    0.596E-02
DAV:   9    -0.361048109685E+04   -0.16915E-04   -0.73375E-05  5496   0.116E-02    0.305E-02
DAV:  10    -0.361048109926E+04   -0.24097E-05   -0.20304E-05  5824   0.520E-03    0.179E-02
DAV:  11    -0.361048109856E+04    0.69755E-06   -0.54434E-06  4976   0.303E-03
 augmentation electrons    1804.924120880199     
 soft         electrons    0.000000000000000     
 total        electrons    1804.924120880199     
 augmentation electrons  -5.1594994543728907E-002
 soft         electrons    0.000000000000000     
 total        electrons  -5.1594994543728907E-002
 augmentation electrons    1868.172086435008     
 soft         electrons    0.000000000000000     
 total        electrons    1868.172086435008     
 augmentation electrons    1811.549054493008     
 soft         electrons    0.000000000000000     
 total        electrons    1811.549054493008     
 augmentation electrons    56.24345583216515     
 soft         electrons    1748.680597547179     
 total        electrons    1804.924053379344     
 augmentation electrons    23.60753173916941     
 soft         electrons    1748.680597547179     
 total        electrons    38.95509916193247     
 translations:            0            1            0
  10 F= -.36480963E+04 E0= -.36480928E+04  d E =-.344856E-01  mag=    39.0067
 curvature:  -0.92 expect dE=-0.990E-01 dE for cont linesearch -0.155E-02
 trial: gam= 1.17021 g(F)=  0.108E+00 g(S)=  0.000E+00 ort = 0.161E-01 (trialstep = 0.136E+00)
 search vector abs. value=  0.356E+00
 bond charge predicted
       N       E                     dE             d eps       ncg     rms          rms(c)
DAV:   1    -0.361048110331E+04   -0.40478E-05   -0.76033E-01  5992   0.843E-01    0.685E-01
DAV:   2    -0.361049754077E+04   -0.16437E-01   -0.14950E-01  5392   0.162E-01    0.403E-01
DAV:   3    -0.361049838626E+04   -0.84550E-03   -0.10625E-02  5600   0.835E-02    0.331E-01
DAV:   4    -0.361049813528E+04    0.25099E-03   -0.90801E-04  5944   0.376E-02    0.130E-01
DAV:   5    -0.361049815681E+04   -0.21527E-04   -0.10826E-04  5680   0.108E-02    0.104E-01
DAV:   6    -0.361049815512E+04    0.16849E-05   -0.48017E-05  5848   0.704E-03    0.950E-02
DAV:   7    -0.361049813885E+04    0.16273E-04   -0.99016E-05  5568   0.124E-02    0.549E-02
DAV:   8    -0.361049813318E+04    0.56684E-05   -0.59642E-05  5904   0.835E-03    0.204E-02
DAV:   9    -0.361049813541E+04   -0.22312E-05   -0.10652E-05  5008   0.375E-03    0.116E-02
DAV:  10    -0.361049813538E+04    0.29220E-07   -0.25601E-06  4624   0.214E-03
 augmentation electrons    1804.919746099995     
 soft         electrons    0.000000000000000     
 total        electrons    1804.919746099995     
 augmentation electrons  -5.1609164087678017E-002
 soft         electrons    0.000000000000000     
 total        electrons  -5.1609164087678017E-002
 augmentation electrons    1868.348210755740     
 soft         electrons    0.000000000000000     
 total        electrons    1868.348210755740     
 augmentation electrons    1811.725178813740     
 soft         electrons    0.000000000000000     
 total        electrons    1811.725178813740     
 augmentation electrons    56.23842439889761     
 soft         electrons    1748.681253800326     
 total        electrons    1804.919678199223     
 augmentation electrons    23.60428576684484     
 soft         electrons    1748.681253800326     
 total        electrons    38.95581828066821     
 translations:            0            1            0
  11 F= -.36481125E+04 E0= -.36481089E+04  d E =-.161391E-01  mag=    39.0074
 ZBRENT: can't locate minimum, use default step
 trial-energy change:   -0.016139  1 .order   -0.016304   -0.017216   -0.015392
 step:   0.5424(harm=  1.2802)  dis= 0.01681  next Energy= -3648.177612 (dE=-0.813E-01)
 bond charge predicted
       N       E                     dE             d eps       ncg     rms          rms(c)
DAV:   1    -0.361038173721E+04    0.11640E+00   -0.68461E+00  5968   0.253E+00    0.208E+00
DAV:   2    -0.361053141591E+04   -0.14968E+00   -0.13393E+00  5480   0.469E-01    0.130E+00
DAV:   3    -0.361054013576E+04   -0.87199E-02   -0.72615E-02  5920   0.201E-01    0.135E+00
DAV:   4    -0.361053585733E+04    0.42784E-02   -0.23719E-02  5640   0.131E-01    0.519E-01
DAV:   5    -0.361053677062E+04   -0.91330E-03   -0.20610E-03  5416   0.484E-02    0.380E-01
DAV:   6    -0.361053642033E+04    0.35029E-03   -0.57251E-04  5968   0.314E-02    0.241E-01
DAV:   7    -0.361053653060E+04   -0.11027E-03   -0.10553E-03  5480   0.407E-02    0.205E-01
DAV:   8    -0.361053644138E+04    0.89212E-04   -0.99158E-04  5744   0.292E-02    0.133E-01
DAV:   9    -0.361053642461E+04    0.16772E-04   -0.20008E-04  5784   0.168E-02    0.446E-02
DAV:  10    -0.361053644049E+04   -0.15874E-04   -0.41764E-05  5352   0.919E-03    0.281E-02
DAV:  11    -0.361053643866E+04    0.18284E-05   -0.18729E-05  6048   0.570E-03    0.165E-02
DAV:  12    -0.361053643875E+04   -0.87624E-07   -0.34428E-06  4680   0.240E-03
 augmentation electrons    1804.914772568627     
 soft         electrons    0.000000000000000     
 total        electrons    1804.914772568627     
 augmentation electrons  -5.1364904347160852E-002
 soft         electrons    0.000000000000000     
 total        electrons  -5.1364904347160852E-002
 augmentation electrons    1884.123034376407     
 soft         electrons    0.000000000000000     
 total        electrons    1884.123034376407     
 augmentation electrons    1827.500002434407     
 soft         electrons    0.000000000000000     
 total        electrons    1827.500002434407     
 augmentation electrons    56.23267216714939     
 soft         electrons    1748.682032412014     
 total        electrons    1804.914704579164     
 augmentation electrons    23.59524240767243     
 soft         electrons    1748.682032412014     
 total        electrons    38.95900493440919     
 translations:            0            1            0
  12 F= -.36481479E+04 E0= -.36481440E+04  d E =-.515560E-01  mag=    39.0104
 curvature:  -1.05 expect dE=-0.484E-01 dE for cont linesearch -0.128E-01
 ZBRENT: increasing intervall
 opt :   1.3559  next Energy= -3648.162696 (dE=-0.664E-01)
 bond charge predicted
       N       E                     dE             d eps       ncg     rms          rms(c)
DAV:   1    -0.360992757004E+04    0.60887E+00   -0.27360E+01  5932   0.503E+00    0.441E+00
DAV:   2    -0.361057361414E+04   -0.64604E+00   -0.55918E+00  5760   0.103E+00    0.391E+00
DAV:   3    -0.361056096577E+04    0.12648E-01   -0.45778E-01  5936   0.566E-01    0.223E+00
DAV:   4    -0.361056418168E+04   -0.32159E-02   -0.11277E-01  6088   0.255E-01    0.123E+00
DAV:   5    -0.361056235889E+04    0.18228E-02   -0.90840E-03  5656   0.103E-01    0.888E-01
DAV:   6    -0.361056004317E+04    0.23157E-02   -0.35751E-03  6312   0.838E-02    0.570E-01
DAV:   7    -0.361056012452E+04   -0.81350E-04   -0.42595E-03  5888   0.796E-02    0.390E-01
DAV:   8    -0.361056052767E+04   -0.40314E-03   -0.90662E-03  5816   0.700E-02    0.346E-01
DAV:   9    -0.361056025869E+04    0.26898E-03   -0.15449E-03  6008   0.458E-02    0.157E-01
DAV:  10    -0.361056031173E+04   -0.53041E-04   -0.39838E-04  5704   0.234E-02    0.104E-01
DAV:  11    -0.361056028857E+04    0.23163E-04   -0.17685E-04  5672   0.190E-02    0.682E-02
DAV:  12    -0.361056027813E+04    0.10435E-04   -0.44544E-05  6144   0.910E-03    0.158E-02
DAV:  13    -0.361056028358E+04   -0.54441E-05   -0.17857E-05  5440   0.476E-03    0.994E-03
DAV:  14    -0.361056028348E+04    0.98800E-07   -0.28244E-06  4608   0.245E-03
 augmentation electrons    1804.847700784193     
 soft         electrons    0.000000000000000     
 total        electrons    1804.847700784193     
 augmentation electrons  -5.0198613071243181E-002
 soft         electrons    0.000000000000000     
 total        electrons  -5.0198613071243181E-002
 augmentation electrons    1898.337397807668     
 soft         electrons    0.000000000000000     
 total        electrons    1898.337397807668     
 augmentation electrons    1841.714365865668     
 soft         electrons    0.000000000000000     
 total        electrons    1841.714365865668     
 augmentation electrons    56.16326202202648     
 soft         electrons    1748.684385741613     
 total        electrons    1804.847647763640     
 augmentation electrons    23.57912805570209     
 soft         electrons    1748.684385741613     
 total        electrons    38.96587246608443     
 translations:            0            1            0
  13 F= -.36481658E+04 E0= -.36481613E+04  d E =-.694254E-01  mag=    39.0161
 curvature:  -1.21 expect dE=-0.333E+00 dE for cont linesearch -0.116E-02
 ZBRENT: bracketing found
 ZBRENT: interpolating
 opt :   1.1782  next Energy= -3648.167406 (dE=-0.711E-01)
 bond charge predicted
       N       E                     dE             d eps       ncg     rms          rms(c)
DAV:   1    -0.361053183057E+04    0.28453E-01   -0.13108E+00  5964   0.110E+00    0.891E-01
DAV:   2    -0.361055993432E+04   -0.28104E-01   -0.25193E-01  5320   0.200E-01    0.457E-01
DAV:   3    -0.361056145530E+04   -0.15210E-02   -0.11711E-02  5680   0.826E-02    0.452E-01
DAV:   4    -0.361056093665E+04    0.51865E-03   -0.25646E-03  5568   0.444E-02    0.169E-01
DAV:   5    -0.361056102157E+04   -0.84915E-04   -0.21280E-04  5416   0.145E-02    0.137E-01
DAV:   6    -0.361056101062E+04    0.10949E-04   -0.10793E-04  6272   0.112E-02    0.132E-01
DAV:   7    -0.361056099484E+04    0.15777E-04   -0.22471E-04  5592   0.184E-02    0.910E-02
DAV:   8    -0.361056096262E+04    0.32220E-04   -0.10354E-04  5840   0.119E-02    0.307E-02
DAV:   9    -0.361056097374E+04   -0.11125E-04   -0.27386E-05  5408   0.578E-03    0.219E-02
DAV:  10    -0.361056097272E+04    0.10286E-05   -0.81287E-06  4992   0.312E-03    0.769E-03
DAV:  11    -0.361056097284E+04   -0.12807E-06   -0.12785E-06  3896   0.150E-03
 augmentation electrons    1804.861625958768     
 soft         electrons    0.000000000000000     
 total        electrons    1804.861625958768     
 augmentation electrons  -5.0493841638490744E-002
 soft         electrons    0.000000000000000     
 total        electrons  -5.0493841638490744E-002
 augmentation electrons    1903.864233936968     
 soft         electrons    0.000000000000000     
 total        electrons    1903.864233936968     
 augmentation electrons    1847.241201994968     
 soft         electrons    0.000000000000000     
 total        electrons    1847.241201994968     
 augmentation electrons    56.17767628655380     
 soft         electrons    1748.683894617056     
 total        electrons    1804.861570903610     
 augmentation electrons    23.58237128858270     
 soft         electrons    1748.683894617056     
 total        electrons    38.96432818304352     
 translations:            0            1            0
  14 F= -.36481678E+04 E0= -.36481634E+04  d E =-.714250E-01  mag=    39.0148
 curvature:  -1.72 expect dE=-0.328E+00 dE for cont linesearch -0.628E-05
 trial: gam= 2.24743 g(F)=  0.191E+00 g(S)=  0.000E+00 ort =-0.114E-02 (trialstep = 0.617E-01)
 search vector abs. value=  0.198E+01
 bond charge predicted
       N       E                     dE             d eps       ncg     rms          rms(c)
DAV:   1    -0.361055232947E+04    0.86432E-02   -0.88942E-01  5972   0.834E-01    0.750E-01
DAV:   2    -0.361057213952E+04   -0.19810E-01   -0.17815E-01  5232   0.157E-01    0.417E-01
DAV:   3    -0.361057326944E+04   -0.11299E-02   -0.92397E-03  5440   0.666E-02    0.393E-01
DAV:   4    -0.361057288568E+04    0.38376E-03   -0.15088E-03  5680   0.361E-02    0.150E-01
DAV:   5    -0.361057295872E+04   -0.73035E-04   -0.14906E-04  5256   0.122E-02    0.121E-01
DAV:   6    -0.361057295211E+04    0.66140E-05   -0.12154E-04  5720   0.124E-02    0.107E-01
DAV:   7    -0.361057295335E+04   -0.12444E-05   -0.16084E-04  5440   0.141E-02    0.908E-02
DAV:   8    -0.361057292038E+04    0.32971E-04   -0.75494E-05  5552   0.820E-03    0.212E-02
DAV:   9    -0.361057293012E+04   -0.97428E-05   -0.12857E-05  5064   0.353E-03    0.111E-02
DAV:  10    -0.361057293145E+04   -0.13298E-05   -0.35496E-06  4544   0.255E-03    0.714E-03
DAV:  11    -0.361057293149E+04   -0.34488E-07   -0.65940E-07  4168   0.118E-03
 augmentation electrons    1804.850171023708     
 soft         electrons    0.000000000000000     
 total        electrons    1804.850171023708     
 augmentation electrons  -5.0201512004644885E-002
 soft         electrons    0.000000000000000     
 total        electrons  -5.0201512004644885E-002
 augmentation electrons    1899.010975052153     
 soft         electrons    0.000000000000000     
 total        electrons    1899.010975052153     
 augmentation electrons    1842.387943110153     
 soft         electrons    0.000000000000000     
 total        electrons    1842.387943110153     
 augmentation electrons    56.16637404880004     
 soft         electrons    1748.683743755135     
 total        electrons    1804.850117803935     
 augmentation electrons    23.57962326818276     
 soft         electrons    1748.683743755135     
 total        electrons    38.96578343177802     
 translations:            0            1            0
  15 F= -.36481786E+04 E0= -.36481741E+04  d E =-.108670E-01  mag=    39.0160
 ZBRENT: can't locate minimum, use default step
 trial-energy change:   -0.010867  1 .order   -0.011120   -0.011637   -0.010603
 step:   0.2470(harm=  0.6950)  dis= 0.01747  next Energy= -3648.233268 (dE=-0.655E-01)
 bond charge predicted
       N       E                     dE             d eps       ncg     rms          rms(c)
DAV:   1    -0.361041453449E+04    0.15840E+00   -0.79982E+00  5928   0.250E+00    0.230E+00
DAV:   2    -0.361059520917E+04   -0.18067E+00   -0.16171E+00  5352   0.463E-01    0.137E+00
DAV:   3    -0.361060731199E+04   -0.12103E-01   -0.82051E-02  5872   0.183E-01    0.164E+00
DAV:   4    -0.361060061666E+04    0.66953E-02   -0.25872E-02  5608   0.142E-01    0.590E-01
DAV:   5    -0.361060240997E+04   -0.17933E-02   -0.28077E-03  5384   0.557E-02    0.433E-01
DAV:   6    -0.361060199901E+04    0.41097E-03   -0.63073E-04  5896   0.314E-02    0.294E-01
DAV:   7    -0.361060228335E+04   -0.28435E-03   -0.21660E-03  5576   0.502E-02    0.348E-01
DAV:   8    -0.361060198812E+04    0.29523E-03   -0.26343E-03  5608   0.368E-02    0.187E-01
DAV:   9    -0.361060196866E+04    0.19467E-04   -0.32161E-04  5808   0.227E-02    0.614E-02
DAV:  10    -0.361060201141E+04   -0.42751E-04   -0.10203E-04  5296   0.132E-02    0.461E-02
DAV:  11    -0.361060201563E+04   -0.42198E-05   -0.27684E-05  5896   0.710E-03    0.253E-02
DAV:  12    -0.361060201609E+04   -0.46723E-06   -0.53420E-06  4736   0.345E-03
 augmentation electrons    1804.805651102471     
 soft         electrons    0.000000000000000     
 total        electrons    1804.805651102471     
 augmentation electrons  -5.0038304698639305E-002
 soft         electrons    0.000000000000000     
 total        electrons  -5.0038304698639305E-002
 augmentation electrons    1900.255849260331     
 soft         electrons    0.000000000000000     
 total        electrons    1900.255849260331     
 augmentation electrons    1843.632817318331     
 soft         electrons    0.000000000000000     
 total        electrons    1843.632817318331     
 augmentation electrons    56.12217655126911     
 soft         electrons    1748.683423463250     
 total        electrons    1804.805600014520     
 augmentation electrons    23.57044713383947     
 soft         electrons    1748.683423463250     
 total        electrons    38.96835755097730     
 translations:            0            1            0
  16 F= -.36482044E+04 E0= -.36481996E+04  d E =-.365996E-01  mag=    39.0184
 curvature:  -1.83 expect dE=-0.220E+00 dE for cont linesearch -0.114E-01
 ZBRENT: increasing intervall
 opt :   0.6174  next Energy= -3648.223155 (dE=-0.554E-01)
 bond charge predicted
       N       E                     dE             d eps       ncg     rms          rms(c)
DAV:   1    -0.360985897559E+04    0.74304E+00   -0.31980E+01  5904   0.498E+00    0.499E+00
DAV:   2    -0.361068128161E+04   -0.82231E+00   -0.68927E+00  5800   0.116E+00    0.506E+00
DAV:   3    -0.361061699281E+04    0.64289E-01   -0.68021E-01  5872   0.704E-01    0.177E+00
DAV:   4    -0.361062825117E+04   -0.11258E-01   -0.68458E-02  5792   0.163E-01    0.984E-01
DAV:   5    -0.361062736822E+04    0.88295E-03   -0.72624E-03  6056   0.878E-02    0.753E-01
DAV:   6    -0.361062711656E+04    0.25166E-03   -0.36426E-03  6040   0.636E-02    0.593E-01
DAV:   7    -0.361062677198E+04    0.34458E-03   -0.40177E-03  5984   0.796E-02    0.346E-01
DAV:   8    -0.361062712217E+04   -0.35019E-03   -0.43831E-03  5664   0.614E-02    0.321E-01
DAV:   9    -0.361062692498E+04    0.19719E-03   -0.11740E-03  5680   0.446E-02    0.117E-01
DAV:  10    -0.361062697744E+04   -0.52467E-04   -0.32347E-04  5600   0.200E-02    0.688E-02
DAV:  11    -0.361062697504E+04    0.24020E-05   -0.10011E-04  6072   0.146E-02    0.427E-02
DAV:  12    -0.361062697228E+04    0.27608E-05   -0.40189E-05  5872   0.739E-03    0.139E-02
DAV:  13    -0.361062697279E+04   -0.51053E-06   -0.59797E-06  4752   0.292E-03
 augmentation electrons    1804.743763841454     
 soft         electrons    0.000000000000000     
 total        electrons    1804.743763841454     
 augmentation electrons  -4.8702214577720532E-002
 soft         electrons    0.000000000000000     
 total        electrons  -4.8702214577720532E-002
 augmentation electrons    1991.223966829651     
 soft         electrons    0.000000000000000     
 total        electrons    1991.223966829651     
 augmentation electrons    1934.600934887651     
 soft         electrons    0.000000000000000     
 total        electrons    1934.600934887651     
 augmentation electrons    56.06002897018595     
 soft         electrons    1748.683683040185     
 total        electrons    1804.743712010371     
 augmentation electrons    23.55487422461063     
 soft         electrons    1748.683683040185     
 total        electrons    38.97450833091291     
 translations:            0            1            0
  17 F= -.36482224E+04 E0= -.36482172E+04  d E =-.546741E-01  mag=    39.0232
 curvature:  -3.01 expect dE=-0.558E+00 dE for cont linesearch -0.124E-03
 trial: gam= 0.73432 g(F)=  0.185E+00 g(S)=  0.000E+00 ort =-0.904E-02 (trialstep = 0.173E+00)
 search vector abs. value=  0.124E+01
 bond charge predicted
       N       E                     dE             d eps       ncg     rms          rms(c)
DAV:   1    -0.361055883032E+04    0.68142E-01   -0.44096E+00  5856   0.195E+00    0.165E+00
DAV:   2    -0.361065545971E+04   -0.96629E-01   -0.84013E-01  5728   0.395E-01    0.145E+00
DAV:   3    -0.361065848190E+04   -0.30222E-02   -0.75225E-02  5976   0.239E-01    0.177E+00
DAV:   4    -0.361065235574E+04    0.61262E-02   -0.56104E-02  5600   0.160E-01    0.604E-01
DAV:   5    -0.361065442432E+04   -0.20686E-02   -0.28273E-03  5368   0.602E-02    0.479E-01
DAV:   6    -0.361065353677E+04    0.88755E-03   -0.58810E-04  5800   0.319E-02    0.319E-01
DAV:   7    -0.361065346223E+04    0.74538E-04   -0.17418E-03  6280   0.483E-02    0.224E-01
DAV:   8    -0.361065356987E+04   -0.10764E-03   -0.94311E-04  5472   0.325E-02    0.164E-01
DAV:   9    -0.361065355585E+04    0.14018E-04   -0.34132E-04  5976   0.229E-02    0.147E-01
DAV:  10    -0.361065349701E+04    0.58841E-04   -0.13836E-04  5920   0.148E-02    0.399E-02
DAV:  11    -0.361065353014E+04   -0.33131E-04   -0.33011E-05  5344   0.733E-03    0.393E-02
DAV:  12    -0.361065352955E+04    0.59478E-06   -0.13612E-05  5544   0.501E-03    0.183E-02
DAV:  13    -0.361065353194E+04   -0.23876E-05   -0.39813E-06  4608   0.265E-03    0.585E-03
DAV:  14    -0.361065353305E+04   -0.11140E-05   -0.14674E-06  3984   0.148E-03    0.351E-03
DAV:  15    -0.361065353310E+04   -0.46457E-07   -0.30684E-07  3784   0.781E-04
 augmentation electrons    1804.747385617967     
 soft         electrons    0.000000000000000     
 total        electrons    1804.747385617967     
 augmentation electrons  -4.7455583006946432E-002
 soft         electrons    0.000000000000000     
 total        electrons  -4.7455583006946432E-002
 augmentation electrons    2018.424018594943     
 soft         electrons    0.000000000000000     
 total        electrons    2018.424018594943     
 augmentation electrons    1961.800986652943     
 soft         electrons    0.000000000000000     
 total        electrons    1961.800986652943     
 augmentation electrons    56.06581440499689     
 soft         electrons    1748.681518339679     
 total        electrons    1804.747332744676     
 augmentation electrons    23.55100221825519     
 soft         electrons    1748.681518339679     
 total        electrons    38.97820725675781     
 translations:            0            1            0
  18 F= -.36482460E+04 E0= -.36482405E+04  d E =-.235138E-01  mag=    39.0257
 trial-energy change:   -0.023514  1 .order   -0.025121   -0.030908   -0.019334
 step:   0.4616(harm=  0.4616)  dis= 0.02714  next Energy= -3648.263712 (dE=-0.413E-01)
 bond charge predicted
[...]
 total        electrons    1804.897723112673     
 augmentation electrons    23.52567175685039     
 soft         electrons    1748.668628637025     
 total        electrons    38.99601214693752     
 translations:            0            1            0
 143 F= -.36484089E+04 E0= -.36484004E+04  d E =-.734114E-03  mag=    39.0443
 trial-energy change:   -0.000734  1 .order   -0.000671   -0.001017   -0.000324
 step:   0.4041(harm=  0.4654)  dis= 0.00184  next Energy= -3648.408932 (dE=-0.780E-03)
 bond charge predicted
       N       E                     dE             d eps       ncg     rms          rms(c)
DAV:   1    -0.361082267215E+04   -0.40591E-04   -0.11786E-02  5232   0.132E-01    0.127E-01
DAV:   2    -0.361082372909E+04   -0.10569E-02   -0.59713E-03  6192   0.661E-02    0.539E-01
DAV:   3    -0.361082242142E+04    0.13077E-02   -0.12699E-03  5300   0.469E-02    0.147E-01
DAV:   4    -0.361082259717E+04   -0.17576E-03   -0.43643E-04  5304   0.173E-02    0.706E-02
DAV:   5    -0.361082265731E+04   -0.60134E-04   -0.56319E-05  5432   0.934E-03    0.232E-02
DAV:   6    -0.361082267807E+04   -0.20766E-04   -0.16485E-05  4984   0.512E-03    0.162E-02
DAV:   7    -0.361082268031E+04   -0.22371E-05   -0.44273E-06  4600   0.311E-03    0.168E-02
DAV:   8    -0.361082267968E+04    0.62834E-06   -0.28114E-06  4416   0.261E-03
 augmentation electrons    1804.897003319773     
 soft         electrons    0.000000000000000     
 total        electrons    1804.897003319773     
 augmentation electrons  -4.8288224143095963E-002
 soft         electrons    0.000000000000000     
 total        electrons  -4.8288224143095963E-002
 augmentation electrons    1943.159701029550     
 soft         electrons    0.000000000000000     
 total        electrons    1943.159701029550     
 augmentation electrons    1886.536669087549     
 soft         electrons    0.000000000000000     
 total        electrons    1886.536669087549     
 augmentation electrons    56.22824198323640     
 soft         electrons    1748.668714524904     
 total        electrons    1804.896956508140     
 augmentation electrons    23.52589320059029     
 soft         electrons    1748.668714524904     
 total        electrons    38.99632356285188     
 translations:            0            1            0
 144 F= -.36484090E+04 E0= -.36484005E+04  d E =-.828358E-03  mag=    39.0446
 curvature:  -1.62 expect dE=-0.415E-02 dE for cont linesearch -0.154E-04
 trial: gam= 0.38343 g(F)=  0.256E-02 g(S)=  0.000E+00 ort = 0.506E-03 (trialstep = 0.334E+00)
 search vector abs. value=  0.691E-02
 bond charge predicted
       N       E                     dE             d eps       ncg     rms          rms(c)
DAV:   1    -0.361082325070E+04   -0.57039E-03   -0.50512E-02  5240   0.283E-01    0.262E-01
DAV:   2    -0.361082678603E+04   -0.35353E-02   -0.17002E-02  6184   0.124E-01    0.918E-01
DAV:   3    -0.361082281644E+04    0.39696E-02   -0.42300E-03  5360   0.833E-02    0.303E-01
DAV:   4    -0.361082311708E+04   -0.30064E-03   -0.89325E-04  5440   0.323E-02    0.164E-01
DAV:   5    -0.361082323028E+04   -0.11320E-03   -0.17228E-04  5592   0.145E-02    0.490E-02
DAV:   6    -0.361082330971E+04   -0.79433E-04   -0.51877E-05  5152   0.907E-03    0.388E-02
DAV:   7    -0.361082331933E+04   -0.96236E-05   -0.15126E-05  5488   0.608E-03    0.320E-02
DAV:   8    -0.361082331981E+04   -0.47509E-06   -0.13141E-05  5368   0.485E-03    0.189E-02
DAV:   9    -0.361082332150E+04   -0.16927E-05   -0.93704E-06  4536   0.430E-03    0.166E-02
DAV:  10    -0.361082332078E+04    0.71782E-06   -0.37980E-06  4040   0.289E-03
 augmentation electrons    1804.895087915224     
 soft         electrons    0.000000000000000     
 total        electrons    1804.895087915224     
 augmentation electrons  -4.8245642697886816E-002
 soft         electrons    0.000000000000000     
 total        electrons  -4.8245642697886816E-002
 augmentation electrons    1944.606499843495     
 soft         electrons    0.000000000000000     
 total        electrons    1944.606499843495     
 augmentation electrons    1887.983467901495     
 soft         electrons    0.000000000000000     
 total        electrons    1887.983467901495     
 augmentation electrons    56.22636670452358     
 soft         electrons    1748.668674488395     
 total        electrons    1804.895041192919     
 augmentation electrons    23.52577531368380     
 soft         electrons    1748.668674488395     
 total        electrons    38.99630030631082     
 translations:            0            1            0
 145 F= -.36484096E+04 E0= -.36484010E+04  d E =-.570583E-03  mag=    39.0445
 trial-energy change:   -0.000571  1 .order   -0.000626   -0.000921   -0.000331
 step:   0.5216(harm=  0.5216)  dis= 0.00114  next Energy= -3648.409699 (dE=-0.719E-03)
 bond charge predicted
       N       E                     dE             d eps       ncg     rms          rms(c)
DAV:   1    -0.361082350464E+04   -0.18314E-03   -0.16590E-02  5352   0.160E-01    0.187E-01
DAV:   2    -0.361082768865E+04   -0.41840E-02   -0.94901E-03  6168   0.106E-01    0.185E+00
DAV:   3    -0.361081847849E+04    0.92102E-02   -0.12843E-02  5120   0.968E-02    0.187E-01
DAV:   4    -0.361082306070E+04   -0.45822E-02   -0.21378E-03  5056   0.519E-02    0.737E-02
DAV:   5    -0.361082344069E+04   -0.37999E-03   -0.29833E-04  5256   0.210E-02    0.604E-02
DAV:   6    -0.361082343387E+04    0.68105E-05   -0.51999E-05  5656   0.867E-03    0.239E-02
DAV:   7    -0.361082343537E+04   -0.14925E-05   -0.10717E-05  5112   0.416E-03    0.187E-02
DAV:   8    -0.361082343594E+04   -0.57463E-06   -0.55059E-06  4480   0.323E-03
 augmentation electrons    1804.894066375821     
 soft         electrons    0.000000000000000     
 total        electrons    1804.894066375821     
 augmentation electrons  -4.8196517395348547E-002
 soft         electrons    0.000000000000000     
 total        electrons  -4.8196517395348547E-002
 augmentation electrons    1945.414158240775     
 soft         electrons    0.000000000000000     
 total        electrons    1945.414158240775     
 augmentation electrons    1888.791126298775     
 soft         electrons    0.000000000000000     
 total        electrons    1888.791126298775     
 augmentation electrons    56.22549469801596     
 soft         electrons    1748.668525008636     
 total        electrons    1804.894019706652     
 augmentation electrons    23.52653076648300     
 soft         electrons    1748.668525008636     
 total        electrons    38.99795906346764     
 translations:            0            1            0
 146 F= -.36484096E+04 E0= -.36484010E+04  d E =-.644455E-03  mag=    39.0462
 curvature:  -0.65 expect dE=-0.142E-02 dE for cont linesearch -0.559E-06
 trial: gam= 0.92359 g(F)=  0.217E-02 g(S)=  0.000E+00 ort = 0.768E-04 (trialstep = 0.313E+00)
 search vector abs. value=  0.821E-02
 bond charge predicted
       N       E                     dE             d eps       ncg     rms          rms(c)
DAV:   1    -0.361082455085E+04   -0.11155E-02   -0.51476E-02  5632   0.298E-01    0.384E-01
DAV:   2    -0.361084411668E+04   -0.19566E-01   -0.20667E-02  6232   0.229E-01    0.459E+00
DAV:   3    -0.361079710231E+04    0.47014E-01   -0.81551E-02  5144   0.193E-01    0.660E-01
DAV:   4    -0.361082187834E+04   -0.24776E-01   -0.10550E-02  5072   0.115E-01    0.258E-01
DAV:   5    -0.361082405800E+04   -0.21797E-02   -0.21650E-03  5144   0.560E-02    0.159E-01
DAV:   6    -0.361082401105E+04    0.46949E-04   -0.36080E-04  5520   0.219E-02    0.119E-01
DAV:   7    -0.361082398228E+04    0.28773E-04   -0.59146E-05  5960   0.102E-02    0.743E-02
DAV:   8    -0.361082399083E+04   -0.85448E-05   -0.67256E-05  5392   0.787E-03    0.427E-02
DAV:   9    -0.361082400350E+04   -0.12671E-04   -0.20533E-05  5432   0.618E-03    0.327E-02
DAV:  10    -0.361082400627E+04   -0.27773E-05   -0.90083E-06  5064   0.374E-03    0.260E-02
DAV:  11    -0.361082400554E+04    0.73820E-06   -0.43700E-06  4528   0.282E-03
 augmentation electrons    1804.892931448749     
 soft         electrons    0.000000000000000     
 total        electrons    1804.892931448749     
 augmentation electrons  -4.8142757603316363E-002
 soft         electrons    0.000000000000000     
 total        electrons  -4.8142757603316363E-002
 augmentation electrons    1947.564870711395     
 soft         electrons    0.000000000000000     
 total        electrons    1947.564870711395     
 augmentation electrons    1890.941838769395     
 soft         electrons    0.000000000000000     
 total        electrons    1890.941838769395     
 augmentation electrons    56.22418630314959     
 soft         electrons    1748.668698573106     
 total        electrons    1804.892884876255     
 augmentation electrons    23.52606455554386     
 soft         electrons    1748.668698573106     
 total        electrons    38.99637204759441     
 translations:            0            1            0
 147 F= -.36484103E+04 E0= -.36484017E+04  d E =-.654521E-03  mag=    39.0445
 trial-energy change:   -0.000655  1 .order   -0.000525   -0.000702   -0.000348
 step:   0.3947(harm=  0.6210)  dis= 0.00094  next Energy= -3648.410327 (dE=-0.702E-03)
 bond charge predicted
       N       E                     dE             d eps       ncg     rms          rms(c)
DAV:   1    -0.361082421968E+04   -0.21341E-03   -0.39820E-03  5664   0.790E-02    0.179E-01
DAV:   2    -0.361082800824E+04   -0.37886E-02   -0.83142E-03  6272   0.897E-02    0.178E+00
DAV:   3    -0.361081944686E+04    0.85614E-02   -0.14748E-02  5104   0.927E-02    0.187E-01
DAV:   4    -0.361082375412E+04   -0.43073E-02   -0.18917E-03  5008   0.467E-02    0.623E-02
DAV:   5    -0.361082409679E+04   -0.34268E-03   -0.22576E-04  5184   0.183E-02    0.460E-02
DAV:   6    -0.361082409789E+04   -0.11013E-05   -0.32006E-05  5464   0.693E-03    0.228E-02
DAV:   7    -0.361082409802E+04   -0.12668E-06   -0.51281E-06  4440   0.309E-03
 augmentation electrons    1804.892687349279     
 soft         electrons    0.000000000000000     
 total        electrons    1804.892687349279     
 augmentation electrons  -4.8147002803258822E-002
 soft         electrons    0.000000000000000     
 total        electrons  -4.8147002803258822E-002
 augmentation electrons    1948.129461968510     
 soft         electrons    0.000000000000000     
 total        electrons    1948.129461968510     
 augmentation electrons    1891.506430026509     
 soft         electrons    0.000000000000000     
 total        electrons    1891.506430026509     
 augmentation electrons    56.22372223808298     
 soft         electrons    1748.668918567175     
 total        electrons    1804.892640805258     
 augmentation electrons    23.52647648506369     
 soft         electrons    1748.668918567175     
 total        electrons    38.99705406700109     
 translations:            0            1            0
 148 F= -.36484104E+04 E0= -.36484019E+04  d E =-.786116E-03  mag=    39.0452
 curvature:  -0.52 expect dE=-0.719E-03 dE for cont linesearch -0.425E-04
 ZBRENT: increasing intervall
 opt :   0.5581  next Energy= -3648.410496 (dE=-0.871E-03)
 bond charge predicted
       N       E                     dE             d eps       ncg     rms          rms(c)
DAV:   1    -0.361082416471E+04   -0.66813E-04   -0.13239E-02  5312   0.152E-01    0.135E-01
DAV:   2    -0.361082510901E+04   -0.94431E-03   -0.63427E-03  6200   0.630E-02    0.496E-01
DAV:   3    -0.361082402223E+04    0.10868E-02   -0.12597E-03  5352   0.453E-02    0.151E-01
DAV:   4    -0.361082414561E+04   -0.12338E-03   -0.39862E-04  5312   0.179E-02    0.748E-02
DAV:   5    -0.361082418531E+04   -0.39700E-04   -0.52055E-05  5488   0.804E-03    0.213E-02
DAV:   6    -0.361082420322E+04   -0.17914E-04   -0.10346E-05  4680   0.458E-03    0.187E-02
DAV:   7    -0.361082420491E+04   -0.16833E-05   -0.38609E-06  4456   0.326E-03    0.210E-02
DAV:   8    -0.361082420393E+04    0.97967E-06   -0.41436E-06  4544   0.298E-03
 augmentation electrons    1804.892150204975     
 soft         electrons    0.000000000000000     
 total        electrons    1804.892150204975     
 augmentation electrons  -4.8143442536789822E-002
 soft         electrons    0.000000000000000     
 total        electrons  -4.8143442536789822E-002
 augmentation electrons    1949.261437780842     
 soft         electrons    0.000000000000000     
 total        electrons    1949.261437780842     
 augmentation electrons    1892.638405838843     
 soft         electrons    0.000000000000000     
 total        electrons    1892.638405838843     
 augmentation electrons    56.22310288856157     
 soft         electrons    1748.669000827655     
 total        electrons    1804.892103716216     
 augmentation electrons    23.52663050865913     
 soft         electrons    1748.669000827655     
 total        electrons    38.99718935877677     
 translations:            0            1            0
 149 F= -.36484105E+04 E0= -.36484020E+04  d E =-.923279E-03  mag=    39.0453
 curvature:  -1.05 expect dE=-0.214E-02 dE for cont linesearch -0.449E-05
 trial: gam= 0.81501 g(F)=  0.205E-02 g(S)=  0.000E+00 ort = 0.188E-03 (trialstep = 0.362E+00)
 search vector abs. value=  0.780E-02
 bond charge predicted
       N       E                     dE             d eps       ncg     rms          rms(c)
DAV:   1    -0.361082450877E+04   -0.30387E-03   -0.66377E-02  5368   0.336E-01    0.277E-01
DAV:   2    -0.361082806675E+04   -0.35580E-02   -0.16112E-02  6152   0.151E-01    0.889E-01
DAV:   3    -0.361082450664E+04    0.35601E-02   -0.49378E-03  5304   0.842E-02    0.322E-01
DAV:   4    -0.361082462851E+04   -0.12187E-03   -0.17327E-03  5352   0.461E-02    0.208E-01
DAV:   5    -0.361082462344E+04    0.50703E-05   -0.41346E-04  6008   0.207E-02    0.865E-02
DAV:   6    -0.361082469464E+04   -0.71197E-04   -0.12077E-04  5480   0.127E-02    0.524E-02
DAV:   7    -0.361082471305E+04   -0.18413E-04   -0.24953E-05  5360   0.664E-03    0.351E-02
DAV:   8    -0.361082471640E+04   -0.33455E-05   -0.18779E-05  5488   0.595E-03    0.373E-02
DAV:   9    -0.361082471422E+04    0.21820E-05   -0.18850E-05  5360   0.498E-03    0.142E-02
DAV:  10    -0.361082471520E+04   -0.98185E-06   -0.52945E-06  4240   0.344E-03
 augmentation electrons    1804.892626776434     
 soft         electrons    0.000000000000000     
 total        electrons    1804.892626776434     
 augmentation electrons  -4.7989458709890902E-002
 soft         electrons    0.000000000000000     
 total        electrons  -4.7989458709890902E-002
 augmentation electrons    1952.711377084956     
 soft         electrons    0.000000000000000     
 total        electrons    1952.711377084956     
 augmentation electrons    1896.088345142956     
 soft         electrons    0.000000000000000     
 total        electrons    1896.088345142956     
 augmentation electrons    56.22354849354474     
 soft         electrons    1748.669031790971     
 total        electrons    1804.892580284515     
 augmentation electrons    23.52683811050636     
 soft         electrons    1748.669031790971     
 total        electrons    38.99715055010725     
 translations:            0            1            0
 150 F= -.36484110E+04 E0= -.36484025E+04  d E =-.489837E-03  mag=    39.0451
 trial-energy change:   -0.000490  1 .order   -0.000465   -0.000796   -0.000134
 step:   0.4197(harm=  0.4350)  dis= 0.00093  next Energy= -3648.411048 (dE=-0.501E-03)
 bond charge predicted
       N       E                     dE             d eps       ncg     rms          rms(c)
DAV:   1    -0.361082487435E+04   -0.16013E-03   -0.25475E-03  5968   0.627E-02    0.179E-01
DAV:   2    -0.361082608465E+04   -0.12103E-02   -0.11746E-02  6256   0.111E-01    0.497E-01
DAV:   3    -0.361082485078E+04    0.12339E-02   -0.29967E-03  5592   0.654E-02    0.252E-01
DAV:   4    -0.361082472825E+04    0.12253E-03   -0.70420E-04  5704   0.259E-02    0.146E-01
DAV:   5    -0.361082470979E+04    0.18458E-04   -0.15630E-04  5360   0.149E-02    0.917E-02
DAV:   6    -0.361082472193E+04   -0.12138E-04   -0.37240E-05  5560   0.648E-03    0.595E-02
DAV:   7    -0.361082472901E+04   -0.70797E-05   -0.93030E-06  4640   0.465E-03    0.336E-02
DAV:   8    -0.361082473318E+04   -0.41668E-05   -0.67178E-06  5128   0.337E-03    0.179E-02
DAV:   9    -0.361082473594E+04   -0.27643E-05   -0.26580E-06  4208   0.185E-03    0.118E-02
DAV:  10    -0.361082473673E+04   -0.78935E-06   -0.54615E-07  3760   0.110E-03
 augmentation electrons    1804.892716528551     
 soft         electrons    0.000000000000000     
 total        electrons    1804.892716528551     
 augmentation electrons  -4.7963085383341229E-002
 soft         electrons    0.000000000000000     
 total        electrons  -4.7963085383341229E-002
 augmentation electrons    1953.271469040644     
 soft         electrons    0.000000000000000     
 total        electrons    1953.271469040644     
 augmentation electrons    1896.648437098644     
 soft         electrons    0.000000000000000     
 total        electrons    1896.648437098644     
 augmentation electrons    56.22366240872277     
 soft         electrons    1748.669007628911     
 total        electrons    1804.892670037633     
 augmentation electrons    23.52683348911749     
 soft         electrons    1748.669007628911     
 total        electrons    38.99706552345525     
 translations:            0            1            0
 151 F= -.36484111E+04 E0= -.36484025E+04  d E =-.518714E-03  mag=    39.0450
 curvature:  -0.74 expect dE=-0.107E-02 dE for cont linesearch -0.633E-06
 trial: gam= 0.68663 g(F)=  0.145E-02 g(S)=  0.000E+00 ort = 0.818E-04 (trialstep = 0.374E+00)
 search vector abs. value=  0.524E-02
 bond charge predicted
       N       E                     dE             d eps       ncg     rms          rms(c)
DAV:   1    -0.361082491574E+04   -0.17980E-03   -0.46911E-02  5344   0.284E-01    0.185E-01
DAV:   2    -0.361082625694E+04   -0.13412E-02   -0.12849E-02  6168   0.103E-01    0.493E-01
DAV:   3    -0.361082512279E+04    0.11341E-02   -0.20429E-03  5472   0.602E-02    0.187E-01
DAV:   4    -0.361082513047E+04   -0.76788E-05   -0.58764E-04  5440   0.301E-02    0.130E-01
DAV:   5    -0.361082512756E+04    0.29063E-05   -0.17449E-04  5720   0.150E-02    0.756E-02
DAV:   6    -0.361082514227E+04   -0.14712E-04   -0.60010E-05  5240   0.968E-03    0.420E-02
DAV:   7    -0.361082514676E+04   -0.44852E-05   -0.15076E-05  5536   0.539E-03    0.274E-02
DAV:   8    -0.361082514681E+04   -0.47665E-07   -0.13185E-05  4912   0.445E-03    0.240E-02
DAV:   9    -0.361082514632E+04    0.48753E-06   -0.91640E-06  5168   0.456E-03
 augmentation electrons    1804.894286460091     
 soft         electrons    0.000000000000000     
 total        electrons    1804.894286460091     
 augmentation electrons  -4.7797812377924229E-002
 soft         electrons    0.000000000000000     
 total        electrons  -4.7797812377924229E-002
 augmentation electrons    1957.166457838463     
 soft         electrons    0.000000000000000     
 total        electrons    1957.166457838463     
 augmentation electrons    1900.543425896463     
 soft         electrons    0.000000000000000     
 total        electrons    1900.543425896463     
 augmentation electrons    56.22557864214134     
 soft         electrons    1748.668661271448     
 total        electrons    1804.894239913590     
 augmentation electrons    23.52602980403780     
 soft         electrons    1748.668661271448     
 total        electrons    38.99594484947674     
 translations:            0            1            0
 152 F= -.36484113E+04 E0= -.36484027E+04  d E =-.252923E-03  mag=    39.0437
 trial-energy change:   -0.000253  1 .order   -0.000370   -0.000563   -0.000177
 step:   0.5443(harm=  0.5443)  dis= 0.00098  next Energy= -3648.411477 (dE=-0.410E-03)
 reached required accuracy - stopping structural energy minimisation
 writing wavefunctions
