 ----------------------------------------------------
    OOO  PPPP  EEEEE N   N M   M PPPP
   O   O P   P E     NN  N MM MM P   P
   O   O PPPP  EEEEE N N N M M M PPPP   -- VERSION
   O   O P     E     N  NN M   M P
    OOO  P     EEEEE N   N M   M P
 ----------------------------------------------------
 running  512 mpi-ranks, with    1 threads/rank
 distrk:  each k-point on  512 cores,    1 groups
 distr:  one band on    4 cores,  128 groups
 vasp.6.3.2 27Jun22 (build Nov 12 2024 19:13:04) complex                        
  
 POSCAR found type information on POSCAR MnBrN C H 
 POSCAR found :  5 types and     633 ions
 scaLAPACK will be used
 LDA part: xc-table for Pade appr. of Perdew
 POSCAR, INCAR and KPOINTS ok, starting setup
 FFT: planning ... GRIDC
 FFT: planning ... GRID_SOFT
 FFT: planning ... GRID
 WAVECAR not read
 entering main loop
       N       E                     dE             d eps       ncg     rms          rms(c)
RMM:   1     0.170996569695E+05    0.17100E+05   -0.60675E+05  2560   0.100E+03
RMM:   2     0.278098222264E+04   -0.14319E+05   -0.17045E+05  2560   0.245E+02
RMM:   3    -0.118794096792E+04   -0.39689E+04   -0.54681E+04  2560   0.140E+02
RMM:   4    -0.315860490539E+04   -0.19707E+04   -0.17782E+04  2560   0.990E+01
RMM:   5    -0.367200371561E+04   -0.51340E+03   -0.48409E+03  2560   0.538E+01
RMM:   6    -0.383191446184E+04   -0.15991E+03   -0.14131E+03  2560   0.309E+01
RMM:   7    -0.388687482042E+04   -0.54960E+02   -0.49526E+02  2560   0.177E+01
RMM:   8    -0.391018216804E+04   -0.23307E+02   -0.19948E+02  2560   0.113E+01
RMM:   9    -0.392399809920E+04   -0.13816E+02   -0.13244E+02  6053   0.663E+00
RMM:  10    -0.392730149362E+04   -0.33034E+01   -0.29519E+01  6946   0.296E+00
RMM:  11    -0.392790782080E+04   -0.60633E+00   -0.47616E+00  7437   0.103E+00
RMM:  12    -0.392802587130E+04   -0.11805E+00   -0.96264E-01  7713   0.344E-01    0.189E+02
RMM:  13    -0.484667139167E+04   -0.91865E+03   -0.52386E+03  8736   0.585E+01    0.376E+02
RMM:  14    -0.412661086070E+04    0.72006E+03   -0.83682E+02  8516   0.193E+01    0.225E+02
RMM:  15    -0.547419623486E+04   -0.13476E+04   -0.22815E+03  8577   0.202E+01    0.194E+02
RMM:  16    -0.427303002534E+04    0.12012E+04   -0.58897E+02  8315   0.109E+01    0.168E+02
RMM:  17    -0.367538376530E+04    0.59765E+03   -0.15086E+02  7723   0.704E+00    0.113E+02
RMM:  18    -0.378901660532E+04   -0.11363E+03   -0.18690E+02  7246   0.837E+00    0.132E+02
RMM:  19    -0.369395953667E+04    0.95057E+02   -0.11651E+02  6879   0.662E+00    0.121E+02
RMM:  20    -0.359508758788E+04    0.98872E+02   -0.41013E+01  6344   0.356E+00    0.910E+01
RMM:  21    -0.359139101808E+04    0.36966E+01   -0.69559E+00  5629   0.172E+00    0.948E+01
RMM:  22    -0.359527921312E+04   -0.38882E+01   -0.17778E+01  6169   0.217E+00    0.975E+01
RMM:  23    -0.359908345010E+04   -0.38042E+01   -0.13281E+01  6169   0.211E+00    0.105E+02
RMM:  24    -0.359538652912E+04    0.36969E+01   -0.21933E+01  6520   0.246E+00    0.889E+01
RMM:  25    -0.359746084912E+04   -0.20743E+01   -0.81559E+00  6163   0.177E+00    0.884E+01
RMM:  26    -0.358690196944E+04    0.10559E+02   -0.89724E+00  6284   0.185E+00    0.834E+01
RMM:  27    -0.360708238687E+04   -0.20180E+02   -0.11895E+01  6451   0.181E+00    0.103E+02
RMM:  28    -0.358558866104E+04    0.21494E+02   -0.14338E+01  6693   0.228E+00    0.899E+01
RMM:  29    -0.357915294184E+04    0.64357E+01   -0.10325E+01  6413   0.189E+00    0.766E+01
RMM:  30    -0.357579712471E+04    0.33558E+01   -0.13212E+00  5645   0.945E-01    0.644E+01
RMM:  31    -0.357546564064E+04    0.33148E+00   -0.34579E-01  5273   0.617E-01    0.671E+01
RMM:  32    -0.357436263936E+04    0.11030E+01   -0.60490E-01  5526   0.590E-01    0.607E+01
RMM:  33    -0.357539449381E+04   -0.10319E+01   -0.40625E-01  5549   0.567E-01    0.629E+01
RMM:  34    -0.357538003435E+04    0.14459E-01   -0.19489E-01  5298   0.442E-01    0.621E+01
RMM:  35    -0.357648494906E+04   -0.11049E+01   -0.20470E-01  5546   0.305E-01    0.574E+01
RMM:  36    -0.357921849648E+04   -0.27335E+01   -0.16461E+00  6669   0.782E-01    0.607E+01
RMM:  37    -0.357985217144E+04   -0.63367E+00   -0.17078E+00  7245   0.104E+00    0.530E+01
RMM:  38    -0.358110668077E+04   -0.12545E+01   -0.81830E-01  6616   0.796E-01    0.573E+01
RMM:  39    -0.357904684980E+04    0.20598E+01   -0.15424E+00  7099   0.999E-01    0.419E+01
RMM:  40    -0.358076599792E+04   -0.17191E+01   -0.53445E-01  6446   0.682E-01    0.385E+01
RMM:  41    -0.358434217745E+04   -0.35762E+01   -0.13896E+00  7323   0.815E-01    0.442E+01
RMM:  42    -0.358331047662E+04    0.10317E+01   -0.12398E+00  6893   0.773E-01    0.373E+01
RMM:  43    -0.358404317582E+04   -0.73270E+00   -0.35392E-01  6249   0.478E-01    0.344E+01
RMM:  44    -0.358423862296E+04   -0.19545E+00   -0.12612E+00  7517   0.853E-01    0.294E+01
RMM:  45    -0.358569282802E+04   -0.14542E+01   -0.62613E-01  6679   0.602E-01    0.274E+01
RMM:  46    -0.358646426063E+04   -0.77143E+00   -0.32072E-01  6166   0.485E-01    0.291E+01
RMM:  47    -0.358628726745E+04    0.17699E+00   -0.11557E-01  5681   0.319E-01    0.293E+01
RMM:  48    -0.358600658539E+04    0.28068E+00   -0.21542E-01  6262   0.364E-01    0.275E+01
RMM:  49    -0.358624031832E+04   -0.23373E+00   -0.34612E-01  6552   0.416E-01    0.236E+01
RMM:  50    -0.358738056876E+04   -0.11403E+01   -0.26655E-01  6515   0.408E-01    0.278E+01
RMM:  51    -0.358742856045E+04   -0.47992E-01   -0.14030E-01  6148   0.324E-01    0.292E+01
RMM:  52    -0.358777405631E+04   -0.34550E+00   -0.21790E-01  6619   0.367E-01    0.321E+01
RMM:  53    -0.358809059468E+04   -0.31654E+00   -0.12911E-01  6117   0.339E-01    0.330E+01
RMM:  54    -0.358778991279E+04    0.30068E+00   -0.11663E-01  6195   0.263E-01    0.308E+01
RMM:  55    -0.358760938248E+04    0.18053E+00   -0.20838E-01  6480   0.316E-01    0.286E+01
RMM:  56    -0.358768963197E+04   -0.80249E-01   -0.26925E-01  7058   0.403E-01    0.257E+01
RMM:  57    -0.358793637403E+04   -0.24674E+00   -0.99346E-02  6369   0.287E-01    0.256E+01
RMM:  58    -0.358886607271E+04   -0.92970E+00   -0.67571E-01  8292   0.509E-01    0.302E+01
RMM:  59    -0.358879047489E+04    0.75598E-01   -0.27473E-01  7464   0.476E-01    0.307E+01
RMM:  60    -0.358850518626E+04    0.28529E+00   -0.51496E-02  5967   0.206E-01    0.302E+01
RMM:  61    -0.358823973732E+04    0.26545E+00   -0.44904E-02  6056   0.136E-01    0.289E+01
RMM:  62    -0.358787876926E+04    0.36097E+00   -0.22940E-01  7114   0.285E-01    0.257E+01
RMM:  63    -0.358844860954E+04   -0.56984E+00   -0.30141E-01  7503   0.441E-01    0.294E+01
RMM:  64    -0.358827745399E+04    0.17116E+00   -0.74861E-02  6181   0.255E-01    0.290E+01
RMM:  65    -0.358821730852E+04    0.60145E-01   -0.81143E-03  5433   0.994E-02    0.293E+01
RMM:  66    -0.358788659908E+04    0.33071E+00   -0.92425E-02  6597   0.191E-01    0.276E+01
RMM:  67    -0.358837593987E+04   -0.48934E+00   -0.10175E-01  6899   0.279E-01    0.298E+01
RMM:  68    -0.358787394935E+04    0.50199E+00   -0.14855E+00  8421   0.811E-01    0.297E+01
RMM:  69    -0.358840794422E+04   -0.53399E+00   -0.34464E-01  7650   0.498E-01    0.292E+01
RMM:  70    -0.358827728846E+04    0.13066E+00   -0.18351E-01  6842   0.236E-01    0.289E+01
RMM:  71    -0.358744299844E+04    0.83429E+00   -0.54838E-01  7267   0.317E-01    0.292E+01
RMM:  72    -0.358684220346E+04    0.60079E+00   -0.32543E-01  7504   0.383E-01    0.232E+01
RMM:  73    -0.358976319323E+04   -0.29210E+01   -0.33773E+00  8484   0.123E+00    0.211E+01
RMM:  74    -0.359044239508E+04   -0.67920E+00   -0.63315E-01  8185   0.532E-01    0.205E+01
RMM:  75    -0.359115805374E+04   -0.71566E+00   -0.42962E-01  8074   0.395E-01    0.270E+01
RMM:  76    -0.359024054374E+04    0.91751E+00   -0.19804E-01  7286   0.364E-01    0.224E+01
RMM:  77    -0.359021850589E+04    0.22038E-01   -0.34154E-02  6024   0.182E-01    0.228E+01
RMM:  78    -0.359298090380E+04   -0.27624E+01   -0.23294E+00  8541   0.111E+00    0.317E+01
RMM:  79    -0.359253482937E+04    0.44607E+00   -0.77273E-01  8143   0.667E-01    0.284E+01
RMM:  80    -0.359279182737E+04   -0.25700E+00   -0.18241E-01  7598   0.363E-01    0.272E+01
RMM:  81    -0.359276768682E+04    0.24141E-01   -0.19181E-01  7620   0.256E-01    0.260E+01
RMM:  82    -0.359275149924E+04    0.16188E-01   -0.58049E-02  6551   0.246E-01    0.265E+01
RMM:  83    -0.359323174515E+04   -0.48025E+00   -0.85497E-01  7965   0.462E-01    0.279E+01
RMM:  84    -0.359297326219E+04    0.25848E+00   -0.21101E-01  7619   0.325E-01    0.252E+01
RMM:  85    -0.359322680106E+04   -0.25354E+00   -0.14807E-01  7407   0.374E-01    0.270E+01
RMM:  86    -0.359312731966E+04    0.99481E-01   -0.51394E-02  6655   0.220E-01    0.271E+01
RMM:  87    -0.359319788523E+04   -0.70566E-01   -0.11620E-01  7503   0.217E-01    0.238E+01
RMM:  88    -0.359410443090E+04   -0.90655E+00   -0.24403E+00  8584   0.966E-01    0.280E+01
RMM:  89    -0.359273174984E+04    0.13727E+01   -0.82986E-01  8085   0.587E-01    0.250E+01
RMM:  90    -0.359280611758E+04   -0.74368E-01   -0.26703E-01  7850   0.390E-01    0.217E+01
RMM:  91    -0.359344783900E+04   -0.64172E+00   -0.21297E-01  7717   0.361E-01    0.204E+01
RMM:  92    -0.359409281455E+04   -0.64498E+00   -0.22262E-01  7782   0.310E-01    0.230E+01
RMM:  93    -0.359407570377E+04    0.17111E-01   -0.36359E-01  7900   0.369E-01    0.240E+01
RMM:  94    -0.359400291160E+04    0.72792E-01   -0.24981E-02  6407   0.131E-01    0.235E+01
RMM:  95    -0.359396878246E+04    0.34129E-01   -0.17185E-02  6253   0.922E-02    0.233E+01
RMM:  96    -0.359396246578E+04    0.63167E-02   -0.10061E-02  5907   0.739E-02    0.231E+01
RMM:  97    -0.359390267831E+04    0.59787E-01   -0.12400E-02  6194   0.666E-02    0.231E+01
RMM:  98    -0.359343432526E+04    0.46835E+00   -0.59300E-01  8426   0.421E-01    0.269E+01
RMM:  99    -0.359357002312E+04   -0.13570E+00   -0.10556E-01  7625   0.243E-01    0.287E+01
RMM: 100    -0.359353036434E+04    0.39659E-01   -0.21135E-02  6363   0.138E-01    0.283E+01
RMM: 101    -0.359338834742E+04    0.14202E+00   -0.29799E-02  6691   0.141E-01    0.281E+01
RMM: 102    -0.359338320381E+04    0.51436E-02   -0.39363E-02  7009   0.140E-01    0.259E+01
RMM: 103    -0.359467056292E+04   -0.12874E+01   -0.36129E-01  8323   0.412E-01    0.240E+01
RMM: 104    -0.359537726214E+04   -0.70670E+00   -0.25756E-01  8126   0.309E-01    0.251E+01
RMM: 105    -0.359574520562E+04   -0.36794E+00   -0.76432E-02  7479   0.185E-01    0.261E+01
RMM: 106    -0.359571179818E+04    0.33407E-01   -0.42488E-02  6521   0.180E-01    0.268E+01
RMM: 107    -0.359585877504E+04   -0.14698E+00   -0.21775E-02  6459   0.108E-01    0.274E+01
RMM: 108    -0.359472373817E+04    0.11350E+01   -0.21361E+00  8624   0.850E-01    0.238E+01
RMM: 109    -0.359450398774E+04    0.21975E+00   -0.64819E-01  8429   0.492E-01    0.172E+01
RMM: 110    -0.359438169772E+04    0.12229E+00   -0.30958E-01  8199   0.393E-01    0.182E+01
RMM: 111    -0.359392951906E+04    0.45218E+00   -0.33193E-01  8163   0.297E-01    0.214E+01
RMM: 112    -0.359401143643E+04   -0.81917E-01   -0.41375E-02  6944   0.171E-01    0.214E+01
RMM: 113    -0.359428521767E+04   -0.27378E+00   -0.87416E-01  8526   0.583E-01    0.281E+01
RMM: 114    -0.359382467819E+04    0.46054E+00   -0.17738E-01  7918   0.291E-01    0.240E+01
RMM: 115    -0.359387078329E+04   -0.46105E-01   -0.12096E-01  7997   0.226E-01    0.221E+01
RMM: 116    -0.359375267152E+04    0.11811E+00   -0.19022E-01  8008   0.261E-01    0.218E+01
RMM: 117    -0.359344879387E+04    0.30388E+00   -0.32566E-01  8234   0.284E-01    0.215E+01
RMM: 118    -0.359793776024E+04   -0.44890E+01   -0.23746E+00  8522   0.570E-01    0.538E+01
RMM: 119    -0.359818302382E+04   -0.24526E+00   -0.22060E-01  7815   0.336E-01    0.547E+01
RMM: 120    -0.359833678941E+04   -0.15377E+00   -0.92598E-02  7345   0.159E-01    0.552E+01
RMM: 121    -0.359846522193E+04   -0.12843E+00   -0.15484E-01  7241   0.151E-01    0.556E+01
RMM: 122    -0.359841495508E+04    0.50267E-01   -0.20423E-02  6279   0.819E-02    0.556E+01
RMM: 123    -0.359791258991E+04    0.50237E+00   -0.13610E+00  8536   0.477E-01    0.555E+01
RMM: 124    -0.359883554405E+04   -0.92295E+00   -0.21074E-01  8225   0.314E-01    0.561E+01
RMM: 125    -0.359841161863E+04    0.42393E+00   -0.10094E-01  7689   0.161E-01    0.555E+01
RMM: 126    -0.359851079461E+04   -0.99176E-01   -0.25929E-01  7977   0.186E-01    0.557E+01
RMM: 127    -0.359751971115E+04    0.99108E+00   -0.29686E-01  7406   0.180E-01    0.547E+01
RMM: 128    -0.359504177388E+04    0.24779E+01   -0.11575E+00  8483   0.494E-01    0.451E+01
RMM: 129    -0.359694104040E+04   -0.18993E+01   -0.48994E-01  8174   0.406E-01    0.466E+01
RMM: 130    -0.359723988549E+04   -0.29885E+00   -0.52359E-01  7905   0.245E-01    0.509E+01
RMM: 131    -0.359636695008E+04    0.87294E+00   -0.89690E-01  8149   0.352E-01    0.537E+01
RMM: 132    -0.359636318627E+04    0.37638E-02   -0.43681E-01  8113   0.297E-01    0.537E+01
RMM: 133    -0.359705079710E+04   -0.68761E+00   -0.13108E+00  8546   0.579E-01    0.529E+01
RMM: 134    -0.359782202243E+04   -0.77123E+00   -0.58785E-01  8241   0.352E-01    0.517E+01
RMM: 135    -0.359849388982E+04   -0.67187E+00   -0.81463E-02  7691   0.161E-01    0.522E+01
RMM: 136    -0.359969553409E+04   -0.12016E+01   -0.75717E-02  7450   0.110E-01    0.527E+01
RMM: 137    -0.359783448481E+04    0.18610E+01   -0.10150E-01  7490   0.133E-01    0.521E+01
RMM: 138    -0.359175181534E+04    0.60827E+01   -0.54460E+00  8701   0.103E+00    0.219E+01
RMM: 139    -0.359277781611E+04   -0.10260E+01   -0.30702E+00  8579   0.687E-01    0.254E+01
RMM: 140    -0.359244302238E+04    0.33479E+00   -0.30307E-01  8041   0.286E-01    0.233E+01
RMM: 141    -0.359234427407E+04    0.98748E-01   -0.59935E-02  7370   0.161E-01    0.239E+01
RMM: 142    -0.359261873856E+04   -0.27446E+00   -0.17014E-01  7554   0.182E-01    0.238E+01
RMM: 143    -0.359210819143E+04    0.51055E+00   -0.15056E+00  8538   0.585E-01    0.286E+01
RMM: 144    -0.359265802538E+04   -0.54983E+00   -0.61902E-01  8292   0.426E-01    0.314E+01
RMM: 145    -0.359302495499E+04   -0.36693E+00   -0.32759E-01  7990   0.263E-01    0.314E+01
RMM: 146    -0.359278404768E+04    0.24091E+00   -0.11464E-01  7556   0.172E-01    0.312E+01
RMM: 147    -0.359266033091E+04    0.12372E+00   -0.54348E-01  8130   0.292E-01    0.323E+01
RMM: 148    -0.359343373700E+04   -0.77341E+00   -0.59115E+00  8618   0.101E+00    0.277E+01
RMM: 149    -0.359305749263E+04    0.37624E+00   -0.49639E-01  8374   0.512E-01    0.221E+01
RMM: 150    -0.359672874043E+04   -0.36712E+01   -0.82159E-01  8425   0.398E-01    0.461E+01
RMM: 151    -0.359604941969E+04    0.67932E+00   -0.34493E-01  8047   0.360E-01    0.447E+01
RMM: 152    -0.359560768229E+04    0.44174E+00   -0.72909E-02  7184   0.109E-01    0.442E+01
RMM: 153    -0.359308963041E+04    0.25181E+01   -0.78641E-01  8424   0.460E-01    0.270E+01
RMM: 154    -0.359319454530E+04   -0.10491E+00   -0.69661E-01  8419   0.549E-01    0.211E+01
RMM: 155    -0.359369714241E+04   -0.50260E+00   -0.10213E+00  8459   0.511E-01    0.226E+01
RMM: 156    -0.359395673329E+04   -0.25959E+00   -0.26682E-01  8252   0.306E-01    0.233E+01
RMM: 157    -0.359390118557E+04    0.55548E-01   -0.86751E-02  7710   0.153E-01    0.250E+01
RMM: 158    -0.359361020612E+04    0.29098E+00   -0.16903E-01  7967   0.189E-01    0.234E+01
RMM: 159    -0.359326908996E+04    0.34112E+00   -0.27974E-01  7796   0.232E-01    0.227E+01
RMM: 160    -0.359302844755E+04    0.24064E+00   -0.42954E-01  7989   0.211E-01    0.223E+01
RMM: 161    -0.359287458278E+04    0.15386E+00   -0.22710E-01  7972   0.202E-01    0.204E+01
RMM: 162    -0.359298803838E+04   -0.11346E+00   -0.20865E-01  8019   0.223E-01    0.214E+01
RMM: 163    -0.359318234455E+04   -0.19431E+00   -0.20528E+00  8594   0.553E-01    0.210E+01
RMM: 164    -0.359362767351E+04   -0.44533E+00   -0.21975E-01  8001   0.245E-01    0.205E+01
RMM: 165    -0.359372566799E+04   -0.97994E-01   -0.25374E-01  8015   0.194E-01    0.200E+01
RMM: 166    -0.359400424558E+04   -0.27858E+00   -0.37991E-01  8324   0.228E-01    0.194E+01
RMM: 167    -0.359495204862E+04   -0.94780E+00   -0.23899E-01  8540   0.247E-01    0.179E+01
RMM: 168    -0.359606917405E+04   -0.11171E+01   -0.60956E-01  8433   0.372E-01    0.173E+01
RMM: 169    -0.359611075620E+04   -0.41582E-01   -0.57869E-02  7596   0.187E-01    0.173E+01
RMM: 170    -0.359604220591E+04    0.68550E-01   -0.17395E-02  6948   0.701E-02    0.172E+01
RMM: 171    -0.359606854636E+04   -0.26340E-01   -0.97218E-03  6687   0.421E-02    0.173E+01
RMM: 172    -0.359649640928E+04   -0.42786E+00   -0.12884E-01  8173   0.163E-01    0.206E+01
RMM: 173    -0.359633173258E+04    0.16468E+00   -0.22173E-01  8185   0.293E-01    0.196E+01
RMM: 174    -0.359590565585E+04    0.42608E+00   -0.85953E-02  7806   0.146E-01    0.178E+01
RMM: 175    -0.359551009673E+04    0.39556E+00   -0.80733E-02  8013   0.158E-01    0.175E+01
RMM: 176    -0.359551821975E+04   -0.81230E-02   -0.72072E-02  7964   0.138E-01    0.177E+01
RMM: 177    -0.359541207380E+04    0.10615E+00   -0.14985E-01  8243   0.154E-01    0.181E+01
RMM: 178    -0.359456632598E+04    0.84575E+00   -0.23067E-01  8454   0.244E-01    0.212E+01
RMM: 179    -0.359461390744E+04   -0.47581E-01   -0.63476E-02  7973   0.231E-01    0.204E+01
RMM: 180    -0.359460554944E+04    0.83580E-02   -0.31318E-03  6359   0.442E-02    0.201E+01
RMM: 181    -0.359463244906E+04   -0.26900E-01   -0.11520E-03  5897   0.287E-02    0.195E+01
RMM: 182    -0.359448990398E+04    0.14255E+00   -0.11570E-02  7441   0.712E-02    0.210E+01
RMM: 183    -0.359474797850E+04   -0.25807E+00   -0.15769E+00  8677   0.591E-01    0.246E+01
RMM: 184    -0.359516496218E+04   -0.41698E+00   -0.56626E-01  8663   0.397E-01    0.215E+01
RMM: 185    -0.359520205836E+04   -0.37096E-01   -0.47791E-01  8530   0.358E-01    0.218E+01
RMM: 186    -0.359515946991E+04    0.42588E-01   -0.15573E-01  8497   0.269E-01    0.197E+01
RMM: 187    -0.359560602186E+04   -0.44655E+00   -0.32594E-01  8613   0.263E-01    0.177E+01
RMM: 188    -0.359594806917E+04   -0.34205E+00   -0.64882E-01  8458   0.430E-01    0.198E+01
RMM: 189    -0.359601071546E+04   -0.62646E-01   -0.37540E-01  8366   0.329E-01    0.183E+01
RMM: 190    -0.359611925013E+04   -0.10853E+00   -0.18367E-01  7999   0.178E-01    0.188E+01
RMM: 191    -0.359601492626E+04    0.10432E+00   -0.77879E-02  8100   0.184E-01    0.201E+01
RMM: 192    -0.359606173428E+04   -0.46808E-01   -0.36611E-02  7799   0.128E-01    0.202E+01
RMM: 193    -0.359645682981E+04   -0.39510E+00   -0.57235E-01  8687   0.445E-01    0.200E+01
RMM: 194    -0.359663313419E+04   -0.17630E+00   -0.20747E-01  8594   0.354E-01    0.180E+01
RMM: 195    -0.359684240977E+04   -0.20928E+00   -0.39215E-02  8169   0.133E-01    0.171E+01
RMM: 196    -0.359687030935E+04   -0.27900E-01   -0.20290E-02  7911   0.127E-01    0.175E+01
RMM: 197    -0.359691790419E+04   -0.47595E-01   -0.12215E-02  7382   0.978E-02    0.169E+01
RMM: 198    -0.359762192019E+04   -0.70402E+00   -0.33963E-01  8584   0.361E-01    0.170E+01
RMM: 199    -0.359716025754E+04    0.46166E+00   -0.15996E-01  8478   0.257E-01    0.170E+01
RMM: 200    -0.359727265393E+04   -0.11240E+00   -0.36456E-02  8084   0.149E-01    0.164E+01
RMM: 201    -0.359739745222E+04   -0.12480E+00   -0.35321E-02  8035   0.111E-01    0.157E+01
RMM: 202    -0.359749595206E+04   -0.98500E-01   -0.38460E-02  7761   0.145E-01    0.170E+01
RMM: 203    -0.359739563860E+04    0.10031E+00   -0.31484E-02  7543   0.124E-01    0.173E+01
RMM: 204    -0.359735227753E+04    0.43361E-01   -0.57731E-03  7223   0.465E-02    0.177E+01
RMM: 205    -0.359734631274E+04    0.59648E-02   -0.25552E-03  6100   0.363E-02    0.177E+01
RMM: 206    -0.359733149164E+04    0.14821E-01   -0.11042E-02  6955   0.683E-02    0.167E+01
RMM: 207    -0.359735656467E+04   -0.25073E-01   -0.45404E-03  6513   0.418E-02    0.156E+01
RMM: 208    -0.359740583051E+04   -0.49266E-01   -0.50399E-02  8186   0.138E-01    0.163E+01
RMM: 209    -0.359741593932E+04   -0.10109E-01   -0.82020E-03  6923   0.732E-02    0.163E+01
RMM: 210    -0.359748593622E+04   -0.69997E-01   -0.11413E-02  7770   0.682E-02    0.158E+01
RMM: 211    -0.359748638911E+04   -0.45289E-03   -0.13403E-02  7669   0.770E-02    0.158E+01
RMM: 212    -0.359749609133E+04   -0.97022E-02   -0.10544E-02  7959   0.541E-02    0.157E+01
RMM: 213    -0.359777067254E+04   -0.27458E+00   -0.56668E-02  8228   0.149E-01    0.154E+01
RMM: 214    -0.359785141020E+04   -0.80738E-01   -0.41804E-02  8092   0.141E-01    0.152E+01
RMM: 215    -0.359783770872E+04    0.13701E-01   -0.50061E-03  6803   0.554E-02    0.152E+01
RMM: 216    -0.359781382764E+04    0.23881E-01   -0.71156E-02  8061   0.112E-01    0.152E+01
RMM: 217    -0.359780852985E+04    0.52978E-02   -0.26928E-03  6366   0.228E-02    0.152E+01
RMM: 218    -0.359781938835E+04   -0.10858E-01   -0.82420E-02  8295   0.150E-01    0.153E+01
RMM: 219    -0.359795010454E+04   -0.13072E+00   -0.11183E-02  7803   0.563E-02    0.151E+01
RMM: 220    -0.359800217083E+04   -0.52066E-01   -0.27836E-02  8023   0.838E-02    0.148E+01
RMM: 221    -0.359796319577E+04    0.38975E-01   -0.34888E-02  8024   0.790E-02    0.149E+01
RMM: 222    -0.359798666735E+04   -0.23472E-01   -0.90315E-03  7246   0.648E-02    0.147E+01
RMM: 223    -0.359274099683E+04    0.52457E+01   -0.90099E+00  8708   0.141E+00    0.355E+01
RMM: 224    -0.359441613036E+04   -0.16751E+01   -0.20739E+00  8703   0.836E-01    0.195E+01
RMM: 225    -0.359099278197E+04    0.34233E+01   -0.13597E+00  8642   0.605E-01    0.201E+01
RMM: 226    -0.358959422775E+04    0.13986E+01   -0.18316E-01  8362   0.219E-01    0.210E+01
RMM: 227    -0.358950049787E+04    0.93730E-01   -0.11035E-02  7596   0.731E-02    0.211E+01
RMM: 228    -0.359727979693E+04   -0.77793E+01   -0.19815E+01  8705   0.188E+00    0.233E+01
RMM: 229    -0.359738626931E+04   -0.10647E+00   -0.83187E-01  8609   0.528E-01    0.162E+01
RMM: 230    -0.359776193565E+04   -0.37567E+00   -0.39314E-01  8620   0.350E-01    0.154E+01
RMM: 231    -0.359791494239E+04   -0.15301E+00   -0.86931E-01  8680   0.420E-01    0.119E+01
RMM: 232    -0.359835321435E+04   -0.43827E+00   -0.55148E-01  8697   0.429E-01    0.110E+01
RMM: 233    -0.359605919546E+04    0.22940E+01   -0.43274E+00  8691   0.103E+00    0.189E+01
RMM: 234    -0.359548783865E+04    0.57136E+00   -0.64002E-01  8649   0.456E-01    0.159E+01
RMM: 235    -0.359401011326E+04    0.14777E+01   -0.79320E-01  8602   0.405E-01    0.175E+01
RMM: 236    -0.359249765198E+04    0.15125E+01   -0.48598E-01  8407   0.260E-01    0.178E+01
RMM: 237    -0.359346492556E+04   -0.96727E+00   -0.16674E-01  8216   0.188E-01    0.192E+01
RMM: 238    -0.359406328027E+04   -0.59835E+00   -0.35465E-01  8694   0.330E-01    0.193E+01
RMM: 239    -0.359564289385E+04   -0.15796E+01   -0.68407E-01  8655   0.434E-01    0.168E+01
RMM: 240    -0.359652111176E+04   -0.87822E+00   -0.42870E-01  8685   0.324E-01    0.150E+01
RMM: 241    -0.359700171030E+04   -0.48060E+00   -0.27299E-01  8630   0.380E-01    0.166E+01
RMM: 242    -0.359732692509E+04   -0.32521E+00   -0.19900E-01  8657   0.243E-01    0.161E+01
RMM: 243    -0.359767442543E+04   -0.34750E+00   -0.23969E-01  8689   0.293E-01    0.180E+01
RMM: 244    -0.359737096655E+04    0.30346E+00   -0.14202E-01  8393   0.224E-01    0.171E+01
RMM: 245    -0.359735965778E+04    0.11309E-01   -0.70655E-03  7359   0.622E-02    0.170E+01
RMM: 246    -0.359708398699E+04    0.27567E+00   -0.11829E-01  8032   0.118E-01    0.159E+01
RMM: 247    -0.359716725834E+04   -0.83271E-01   -0.18139E-01  8667   0.254E-01    0.173E+01
RMM: 248    -0.359732776759E+04   -0.16051E+00   -0.10497E+00  8654   0.449E-01    0.143E+01
RMM: 249    -0.359753901178E+04   -0.21124E+00   -0.18156E-01  8455   0.278E-01    0.147E+01
RMM: 250    -0.359754626603E+04   -0.72543E-02   -0.72184E-02  8127   0.158E-01    0.142E+01
RMM: 251    -0.359750118578E+04    0.45080E-01   -0.12076E-01  8503   0.129E-01    0.139E+01
RMM: 252    -0.359788483463E+04   -0.38365E+00   -0.27874E-01  8554   0.354E-01    0.124E+01
RMM: 253    -0.359794686771E+04   -0.62033E-01   -0.28876E-01  8569   0.346E-01    0.120E+01
RMM: 254    -0.359788817842E+04    0.58689E-01   -0.37436E-02  8373   0.128E-01    0.126E+01
RMM: 255    -0.359786807691E+04    0.20102E-01   -0.45117E-02  8436   0.153E-01    0.124E+01
RMM: 256    -0.359782514142E+04    0.42935E-01   -0.35127E-02  8291   0.900E-02    0.124E+01
RMM: 257    -0.359785365657E+04   -0.28515E-01   -0.27849E-02  8072   0.754E-02    0.123E+01
RMM: 258    -0.359793308953E+04   -0.79433E-01   -0.44508E-02  8443   0.132E-01    0.119E+01
RMM: 259    -0.359792569786E+04    0.73917E-02   -0.39637E-03  7174   0.365E-02    0.119E+01
RMM: 260    -0.359792976760E+04   -0.40697E-02   -0.38751E-04  5849   0.117E-02    0.119E+01
RMM: 261    -0.359792505058E+04    0.47170E-02   -0.18412E-04  5392   0.111E-02    0.119E+01
RMM: 262    -0.359792024196E+04    0.48086E-02   -0.92607E-03  7949   0.562E-02    0.120E+01
RMM: 263    -0.359755723614E+04    0.36301E+00   -0.10402E+00  8695   0.492E-01    0.117E+01
RMM: 264    -0.359762710011E+04   -0.69864E-01   -0.89008E-02  8607   0.213E-01    0.110E+01
RMM: 265    -0.359764800769E+04   -0.20908E-01   -0.78112E-02  8596   0.155E-01    0.113E+01
RMM: 266    -0.359766695857E+04   -0.18951E-01   -0.31196E-02  8553   0.979E-02    0.112E+01
RMM: 267    -0.359770695389E+04   -0.39995E-01   -0.77915E-03  8143   0.498E-02    0.111E+01
RMM: 268    -0.359768763345E+04    0.19320E-01   -0.24370E-02  8249   0.739E-02    0.110E+01
RMM: 269    -0.359768127206E+04    0.63614E-02   -0.77756E-03  7363   0.586E-02    0.111E+01
RMM: 270    -0.359776423453E+04   -0.82962E-01   -0.27981E-02  8358   0.742E-02    0.112E+01
RMM: 271    -0.359777599771E+04   -0.11763E-01   -0.82406E-03  7708   0.790E-02    0.114E+01
RMM: 272    -0.359780043922E+04   -0.24442E-01   -0.11051E-02  7884   0.585E-02    0.116E+01
RMM: 273    -0.359777370734E+04    0.26732E-01   -0.10564E-01  8690   0.220E-01    0.128E+01
RMM: 274    -0.359774671869E+04    0.26989E-01   -0.34046E-02  8447   0.155E-01    0.140E+01
RMM: 275    -0.359769075140E+04    0.55967E-01   -0.12869E-02  8105   0.817E-02    0.140E+01
RMM: 276    -0.359769656762E+04   -0.58162E-02   -0.15439E-02  7936   0.763E-02    0.139E+01
RMM: 277    -0.359767269624E+04    0.23871E-01   -0.87224E-03  7737   0.432E-02    0.137E+01
RMM: 278    -0.359757475528E+04    0.97941E-01   -0.46149E-02  8626   0.128E-01    0.138E+01
RMM: 279    -0.359754970457E+04    0.25051E-01   -0.26371E-02  8421   0.104E-01    0.141E+01
RMM: 280    -0.359753926345E+04    0.10441E-01   -0.64945E-03  7580   0.501E-02    0.141E+01
RMM: 281    -0.359760525139E+04   -0.65988E-01   -0.30570E-02  8480   0.841E-02    0.146E+01
RMM: 282    -0.359767307864E+04   -0.67827E-01   -0.16629E-02  8289   0.743E-02    0.159E+01
RMM: 283    -0.359700311408E+04    0.66996E+00   -0.37947E+00  8716   0.951E-01    0.223E+01
RMM: 284    -0.359675770466E+04    0.24541E+00   -0.53780E-01  8695   0.435E-01    0.151E+01
RMM: 285    -0.359830902530E+04   -0.15513E+01   -0.17618E+00  8689   0.653E-01    0.125E+01
RMM: 286    -0.359805135169E+04    0.25767E+00   -0.56575E-01  8653   0.424E-01    0.118E+01
RMM: 287    -0.359786763374E+04    0.18372E+00   -0.18301E-01  8689   0.274E-01    0.984E+00
RMM: 288    -0.359831779787E+04   -0.45016E+00   -0.27027E-01  8690   0.363E-01    0.987E+00
RMM: 289    -0.359800525449E+04    0.31254E+00   -0.27082E-01  8689   0.323E-01    0.931E+00
RMM: 290    -0.359815036105E+04   -0.14511E+00   -0.76339E-02  8640   0.243E-01    0.107E+01
RMM: 291    -0.359794507686E+04    0.20528E+00   -0.67038E-02  8630   0.218E-01    0.107E+01
RMM: 292    -0.359794784918E+04   -0.27723E-02   -0.49167E-03  7894   0.629E-02    0.107E+01
RMM: 293    -0.359781395938E+04    0.13389E+00   -0.15908E+00  8699   0.610E-01    0.251E+01
RMM: 294    -0.359775198035E+04    0.61979E-01   -0.71918E-01  8684   0.496E-01    0.950E+00
RMM: 295    -0.359776996081E+04   -0.17980E-01   -0.11022E-01  8671   0.251E-01    0.113E+01
RMM: 296    -0.359779101557E+04   -0.21055E-01   -0.55421E-02  8414   0.227E-01    0.119E+01
RMM: 297    -0.359775180093E+04    0.39215E-01   -0.59875E-03  7777   0.737E-02    0.121E+01
RMM: 298    -0.359868911514E+04   -0.93731E+00   -0.21440E+00  8711   0.758E-01    0.296E+01
RMM: 299    -0.359808197186E+04    0.60714E+00   -0.20321E-01  8661   0.384E-01    0.285E+01
RMM: 300    -0.359785936634E+04    0.22261E+00   -0.49551E-02  8483   0.173E-01    0.248E+01
RMM: 301    -0.359759277677E+04    0.26659E+00   -0.19183E-01  8412   0.190E-01    0.268E+01
RMM: 302    -0.359755700816E+04    0.35769E-01   -0.24579E-02  8128   0.140E-01    0.268E+01
RMM: 303    -0.359672030077E+04    0.83671E+00   -0.13049E-01  8599   0.181E-01    0.277E+01
RMM: 304    -0.359651309551E+04    0.20721E+00   -0.27262E-02  8219   0.149E-01    0.277E+01
RMM: 305    -0.359644962285E+04    0.63473E-01   -0.20140E-02  8088   0.823E-02    0.274E+01
RMM: 306    -0.359642548216E+04    0.24141E-01   -0.13558E-02  8070   0.949E-02    0.269E+01
RMM: 307    -0.359629424416E+04    0.13124E+00   -0.12597E-02  8006   0.965E-02    0.263E+01
RMM: 308    -0.359604202997E+04    0.25221E+00   -0.54926E-02  8681   0.151E-01    0.234E+01
RMM: 309    -0.359601055248E+04    0.31477E-01   -0.19975E-02  8467   0.120E-01    0.225E+01
RMM: 310    -0.359606208415E+04   -0.51532E-01   -0.70673E-03  8071   0.689E-02    0.222E+01
RMM: 311    -0.359605444182E+04    0.76423E-02   -0.16727E-03  7746   0.317E-02    0.223E+01
RMM: 312    -0.359606188919E+04   -0.74474E-02   -0.12986E-03  7254   0.274E-02    0.222E+01
RMM: 313    -0.359710226546E+04   -0.10404E+01   -0.74529E-01  8689   0.401E-01    0.141E+01
RMM: 314    -0.359799108982E+04   -0.88882E+00   -0.42435E-01  8649   0.342E-01    0.130E+01
RMM: 315    -0.359827787107E+04   -0.28678E+00   -0.14374E-01  8550   0.192E-01    0.128E+01
RMM: 316    -0.359846417652E+04   -0.18631E+00   -0.85561E-02  8432   0.151E-01    0.128E+01
RMM: 317    -0.359849492966E+04   -0.30753E-01   -0.96950E-03  7970   0.736E-02    0.126E+01
RMM: 318    -0.359869603933E+04   -0.20111E+00   -0.31687E-01  8689   0.352E-01    0.137E+01
RMM: 319    -0.359869670689E+04   -0.66755E-03   -0.46374E-02  8478   0.164E-01    0.138E+01
RMM: 320    -0.359855105848E+04    0.14565E+00   -0.46133E-02  8572   0.130E-01    0.133E+01
RMM: 321    -0.359854720879E+04    0.38497E-02   -0.29829E-02  8567   0.140E-01    0.135E+01
RMM: 322    -0.359852961514E+04    0.17594E-01   -0.80598E-03  8016   0.783E-02    0.133E+01
RMM: 323    -0.359841603440E+04    0.11358E+00   -0.11424E-01  8660   0.235E-01    0.122E+01
RMM: 324    -0.359838161675E+04    0.34418E-01   -0.57015E-02  8671   0.179E-01    0.120E+01
RMM: 325    -0.359832900820E+04    0.52609E-01   -0.24947E-02  8524   0.999E-02    0.108E+01
RMM: 326    -0.359833905823E+04   -0.10050E-01   -0.60096E-02  8590   0.165E-01    0.104E+01
RMM: 327    -0.359839259533E+04   -0.53537E-01   -0.55551E-02  8611   0.197E-01    0.104E+01
RMM: 328    -0.359836864976E+04    0.23946E-01   -0.95397E-02  8674   0.192E-01    0.698E+00
RMM: 329    -0.359849680323E+04   -0.12815E+00   -0.36928E-02  8460   0.161E-01    0.721E+00
RMM: 330    -0.359850625780E+04   -0.94546E-02   -0.26900E-02  8432   0.137E-01    0.645E+00
RMM: 331    -0.359836263660E+04    0.14362E+00   -0.53097E-02  8657   0.139E-01    0.718E+00
RMM: 332    -0.359833272071E+04    0.29916E-01   -0.11238E-02  8328   0.898E-02    0.719E+00
RMM: 333    -0.359838386582E+04   -0.51145E-01   -0.32488E-02  8626   0.119E-01    0.724E+00
RMM: 334    -0.359840464375E+04   -0.20778E-01   -0.18210E-02  8624   0.741E-02    0.711E+00
RMM: 335    -0.359841177160E+04   -0.71279E-02   -0.15690E-02  8556   0.586E-02    0.694E+00
RMM: 336    -0.359839336303E+04    0.18409E-01   -0.29616E-02  8352   0.926E-02    0.611E+00
RMM: 337    -0.359841763002E+04   -0.24267E-01   -0.10958E-02  8100   0.662E-02    0.562E+00
RMM: 338    -0.359902665747E+04   -0.60903E+00   -0.78909E-01  8678   0.405E-01    0.214E+01
RMM: 339    -0.359838671804E+04    0.63994E+00   -0.51808E-01  8695   0.344E-01    0.697E+00
RMM: 340    -0.359843594556E+04   -0.49228E-01   -0.72095E-02  8694   0.208E-01    0.793E+00
RMM: 341    -0.359843449268E+04    0.14529E-02   -0.89303E-03  8308   0.859E-02    0.792E+00
RMM: 342    -0.359843818893E+04   -0.36962E-02   -0.16500E-02  8540   0.957E-02    0.853E+00
RMM: 343    -0.359831501453E+04    0.12317E+00   -0.20041E-01  8662   0.259E-01    0.121E+01
RMM: 344    -0.359830095580E+04    0.14059E-01   -0.34451E-02  8358   0.162E-01    0.117E+01
RMM: 345    -0.359828392873E+04    0.17027E-01   -0.42269E-03  7876   0.419E-02    0.110E+01
RMM: 346    -0.359826420776E+04    0.19721E-01   -0.12692E-02  8137   0.610E-02    0.925E+00
RMM: 347    -0.359823982696E+04    0.24381E-01   -0.74955E-02  8550   0.163E-01    0.559E+00
RMM: 348    -0.359827349198E+04   -0.33665E-01   -0.10827E-01  8676   0.224E-01    0.552E+00
RMM: 349    -0.359826870750E+04    0.47845E-02   -0.43639E-02  8680   0.131E-01    0.109E+01
RMM: 350    -0.359821067050E+04    0.58037E-01   -0.43695E-02  8482   0.206E-01    0.114E+01
RMM: 351    -0.359820492297E+04    0.57475E-02   -0.83655E-03  8353   0.774E-02    0.117E+01
RMM: 352    -0.359820410298E+04    0.81999E-03   -0.14023E-03  7190   0.294E-02    0.118E+01
RMM: 353    -0.359824734641E+04   -0.43243E-01   -0.20134E-02  8376   0.101E-01    0.118E+01
RMM: 354    -0.359820086765E+04    0.46479E-01   -0.12365E-02  8500   0.720E-02    0.117E+01
RMM: 355    -0.359818718922E+04    0.13678E-01   -0.30295E-03  7985   0.377E-02    0.116E+01
RMM: 356    -0.359819803247E+04   -0.10843E-01   -0.53222E-03  8066   0.526E-02    0.115E+01
RMM: 357    -0.359824078929E+04   -0.42757E-01   -0.13854E-02  8475   0.671E-02    0.122E+01
RMM: 358    -0.359827228819E+04   -0.31499E-01   -0.15091E-01  8593   0.264E-01    0.126E+01
RMM: 359    -0.359819202750E+04    0.80261E-01   -0.24551E-02  8605   0.126E-01    0.120E+01
RMM: 360    -0.359814593732E+04    0.46090E-01   -0.12804E-02  8517   0.733E-02    0.103E+01
RMM: 361    -0.359815308505E+04   -0.71477E-02   -0.49707E-03  8153   0.536E-02    0.777E+00
RMM: 362    -0.359818305135E+04   -0.29966E-01   -0.18483E-02  8477   0.103E-01    0.726E+00
RMM: 363    -0.359817595912E+04    0.70922E-02   -0.82321E-02  8662   0.177E-01    0.530E+00
RMM: 364    -0.359832168840E+04   -0.14573E+00   -0.72417E-02  8659   0.223E-01    0.148E+01
RMM: 365    -0.359811376954E+04    0.20792E+00   -0.95121E-02  8578   0.304E-01    0.667E+00
RMM: 366    -0.359821915396E+04   -0.10538E+00   -0.41332E-02  8433   0.179E-01    0.102E+01
RMM: 367    -0.359810988757E+04    0.10927E+00   -0.26377E-02  8278   0.121E-01    0.904E+00
RMM: 368    -0.359827700912E+04   -0.16712E+00   -0.36134E-02  8597   0.140E-01    0.127E+01
RMM: 369    -0.359826135763E+04    0.15651E-01   -0.42395E-02  8355   0.199E-01    0.129E+01
RMM: 370    -0.359822194957E+04    0.39408E-01   -0.16043E-02  7924   0.103E-01    0.130E+01
RMM: 371    -0.359819654620E+04    0.25403E-01   -0.54700E-03  7670   0.549E-02    0.132E+01
RMM: 372    -0.359819999296E+04   -0.34468E-02   -0.54136E-03  7386   0.553E-02    0.134E+01
RMM: 373    -0.359820835559E+04   -0.83626E-02   -0.87415E-03  8429   0.690E-02    0.137E+01
RMM: 374    -0.359819553482E+04    0.12821E-01   -0.39615E-03  7764   0.580E-02    0.138E+01
RMM: 375    -0.359819100738E+04    0.45274E-02   -0.16143E-03  6946   0.331E-02    0.139E+01
RMM: 376    -0.359815491267E+04    0.36095E-01   -0.36815E-03  7888   0.367E-02    0.137E+01
RMM: 377    -0.359816610767E+04   -0.11195E-01   -0.32298E-03  7311   0.478E-02    0.135E+01
RMM: 378    -0.359803418034E+04    0.13193E+00   -0.10220E-02  8424   0.652E-02    0.709E+00
RMM: 379    -0.359816352460E+04   -0.12934E+00   -0.37575E-02  8329   0.170E-01    0.803E+00
RMM: 380    -0.359816851180E+04   -0.49872E-02   -0.18584E-02  8054   0.130E-01    0.811E+00
RMM: 381    -0.359813183947E+04    0.36672E-01   -0.63929E-03  7955   0.612E-02    0.786E+00
RMM: 382    -0.359810524608E+04    0.26593E-01   -0.21078E-02  8447   0.103E-01    0.391E+00
RMM: 383    -0.359819455765E+04   -0.89312E-01   -0.46545E-02  8462   0.181E-01    0.456E+00
RMM: 384    -0.359817953554E+04    0.15022E-01   -0.20005E-02  8288   0.987E-02    0.459E+00
RMM: 385    -0.359818125978E+04   -0.17242E-02   -0.25060E-03  7356   0.501E-02    0.448E+00
RMM: 386    -0.359818244853E+04   -0.11887E-02   -0.97892E-04  6976   0.310E-02    0.434E+00
RMM: 387    -0.359817936936E+04    0.30792E-02   -0.78489E-03  8081   0.718E-02    0.450E+00
RMM: 388    -0.359812970494E+04    0.49664E-01   -0.48113E-02  8595   0.133E-01    0.481E+00
RMM: 389    -0.359815048323E+04   -0.20778E-01   -0.19507E-02  8198   0.105E-01    0.591E+00
RMM: 390    -0.359813368058E+04    0.16803E-01   -0.13071E-02  8387   0.915E-02    0.559E+00
RMM: 391    -0.359813697391E+04   -0.32933E-02   -0.55585E-03  8075   0.507E-02    0.566E+00
RMM: 392    -0.359814137507E+04   -0.44012E-02   -0.43698E-03  7619   0.596E-02    0.537E+00
RMM: 393    -0.359816455607E+04   -0.23181E-01   -0.10597E-02  8312   0.734E-02    0.460E+00
RMM: 394    -0.359819805774E+04   -0.33502E-01   -0.27164E-02  8264   0.153E-01    0.540E+00
RMM: 395    -0.359817628102E+04    0.21777E-01   -0.73885E-03  8092   0.694E-02    0.518E+00
RMM: 396    -0.359816135595E+04    0.14925E-01   -0.67349E-03  7984   0.459E-02    0.415E+00
RMM: 397    -0.359818037479E+04   -0.19019E-01   -0.80381E-03  7973   0.650E-02    0.430E+00
RMM: 398    -0.359827305329E+04   -0.92679E-01   -0.26517E-02  8521   0.111E-01    0.570E+00
RMM: 399    -0.359829406210E+04   -0.21009E-01   -0.10898E-02  8522   0.741E-02    0.585E+00
RMM: 400    -0.359833048686E+04   -0.36425E-01   -0.56441E-03  8435   0.357E-02    0.599E+00
RMM: 401    -0.359835543626E+04   -0.24949E-01   -0.26677E-03  8147   0.257E-02    0.609E+00
RMM: 402    -0.359836479444E+04   -0.93582E-02   -0.42523E-03  8123   0.344E-02    0.627E+00
RMM: 403    -0.359834915950E+04    0.15635E-01   -0.86758E-03  7939   0.555E-02    0.624E+00
RMM: 404    -0.359828061004E+04    0.68549E-01   -0.22485E-02  8619   0.943E-02    0.570E+00
RMM: 405    -0.359823483286E+04    0.45777E-01   -0.11591E-02  8382   0.565E-02    0.523E+00
RMM: 406    -0.359819896328E+04    0.35870E-01   -0.17032E-02  8621   0.620E-02    0.414E+00
RMM: 407    -0.359823407993E+04   -0.35117E-01   -0.33275E-02  8381   0.152E-01    0.533E+00
RMM: 408    -0.359824504043E+04   -0.10961E-01   -0.27774E-02  8574   0.120E-01    0.812E+00
RMM: 409    -0.359822163249E+04    0.23408E-01   -0.14034E-02  7991   0.117E-01    0.841E+00
RMM: 410    -0.359824112344E+04   -0.19491E-01   -0.17685E-02  7910   0.117E-01    0.935E+00
RMM: 411    -0.359820565219E+04    0.35471E-01   -0.10374E-02  7856   0.904E-02    0.934E+00
RMM: 412    -0.359818991923E+04    0.15733E-01   -0.20624E-03  7122   0.388E-02    0.933E+00
RMM: 413    -0.359819280424E+04   -0.28850E-02   -0.11612E-03  7190   0.236E-02    0.943E+00
RMM: 414    -0.359819831738E+04   -0.55131E-02   -0.16100E-03  7490   0.250E-02    0.947E+00
RMM: 415    -0.359819945592E+04   -0.11385E-02   -0.31839E-04  5880   0.151E-02    0.948E+00
RMM: 416    -0.359820761306E+04   -0.81571E-02   -0.48789E-04  6953   0.127E-02    0.953E+00
RMM: 417    -0.359819661691E+04    0.10996E-01   -0.13484E-03  7366   0.249E-02    0.941E+00
RMM: 418    -0.359815782668E+04    0.38790E-01   -0.47028E-02  8558   0.149E-01    0.938E+00
RMM: 419    -0.359817138353E+04   -0.13557E-01   -0.11999E-02  8280   0.879E-02    0.931E+00
RMM: 420    -0.359815746055E+04    0.13923E-01   -0.39395E-03  7528   0.392E-02    0.904E+00
RMM: 421    -0.359816934752E+04   -0.11887E-01   -0.14613E-03  6953   0.353E-02    0.902E+00
RMM: 422    -0.359817653012E+04   -0.71826E-02   -0.38945E-04  6666   0.169E-02    0.904E+00
RMM: 423    -0.359817957837E+04   -0.30482E-02   -0.36054E-02  8640   0.110E-01    0.810E+00
RMM: 424    -0.359822010819E+04   -0.40530E-01   -0.48500E-02  8623   0.175E-01    0.865E+00
RMM: 425    -0.359823035712E+04   -0.10249E-01   -0.15457E-02  8076   0.109E-01    0.891E+00
RMM: 426    -0.359823938587E+04   -0.90287E-02   -0.19958E-03  7679   0.370E-02    0.897E+00
RMM: 427    -0.359825050862E+04   -0.11123E-01   -0.24725E-03  7955   0.296E-02    0.886E+00
RMM: 428    -0.359829181005E+04   -0.41301E-01   -0.29586E-03  7703   0.331E-02    0.926E+00
RMM: 429    -0.359828422872E+04    0.75813E-02   -0.42755E-04  6668   0.183E-02    0.925E+00
RMM: 430    -0.359828584751E+04   -0.16188E-02   -0.11565E-04  5798   0.746E-03    0.928E+00
RMM: 431    -0.359824108683E+04    0.44761E-01   -0.59129E-03  8011   0.432E-02    0.884E+00
RMM: 432    -0.359818987989E+04    0.51207E-01   -0.70771E-03  8042   0.447E-02    0.820E+00
RMM: 433    -0.359813864692E+04    0.51233E-01   -0.19680E-02  8490   0.737E-02    0.747E+00
RMM: 434    -0.359817920895E+04   -0.40562E-01   -0.17649E-02  8168   0.123E-01    0.764E+00
RMM: 435    -0.359817155148E+04    0.76575E-02   -0.69007E-03  8065   0.623E-02    0.761E+00
RMM: 436    -0.359817329370E+04   -0.17422E-02   -0.25038E-03  7415   0.374E-02    0.760E+00
RMM: 437    -0.359817611704E+04   -0.28233E-02   -0.10063E-03  7133   0.249E-02    0.774E+00
RMM: 438    -0.359820107897E+04   -0.24962E-01   -0.34732E-02  8622   0.122E-01    0.830E+00
RMM: 439    -0.359821029679E+04   -0.92178E-02   -0.26774E-02  8378   0.148E-01    0.921E+00
RMM: 440    -0.359819228063E+04    0.18016E-01   -0.26669E-03  7552   0.432E-02    0.923E+00
RMM: 441    -0.359814519520E+04    0.47085E-01   -0.93052E-03  8136   0.659E-02    0.915E+00
RMM: 442    -0.359812382155E+04    0.21374E-01   -0.64085E-03  7668   0.303E-02    0.910E+00
RMM: 443    -0.359816065956E+04   -0.36838E-01   -0.13609E-02  8169   0.948E-02    0.873E+00
RMM: 444    -0.359816866215E+04   -0.80026E-02   -0.58599E-03  7645   0.420E-02    0.802E+00
RMM: 445    -0.359820966883E+04   -0.41007E-01   -0.14371E-02  8165   0.595E-02    0.737E+00
RMM: 446    -0.359825168282E+04   -0.42014E-01   -0.76893E-03  7702   0.411E-02    0.842E+00
RMM: 447    -0.359823144246E+04    0.20240E-01   -0.48319E-03  7252   0.619E-02    0.839E+00
RMM: 448    -0.359821880774E+04    0.12635E-01   -0.18332E-01  8624   0.241E-01    0.760E+00
RMM: 449    -0.359827135897E+04   -0.52551E-01   -0.47208E-02  8413   0.184E-01    0.780E+00
RMM: 450    -0.359827335867E+04   -0.19997E-02   -0.32756E-03  7405   0.521E-02    0.788E+00
RMM: 451    -0.359827610727E+04   -0.27486E-02   -0.32244E-03  7670   0.434E-02    0.823E+00
RMM: 452    -0.359827268462E+04    0.34227E-02   -0.95653E-04  6558   0.281E-02    0.826E+00
RMM: 453    -0.359830805265E+04   -0.35368E-01   -0.53747E-02  8684   0.135E-01    0.783E+00
RMM: 454    -0.359837993648E+04   -0.71884E-01   -0.20931E-02  8625   0.112E-01    0.809E+00
RMM: 455    -0.359838318804E+04   -0.32516E-02   -0.25827E-03  7657   0.433E-02    0.816E+00
RMM: 456    -0.359839972071E+04   -0.16533E-01   -0.15495E-03  7722   0.305E-02    0.825E+00
RMM: 457    -0.359843270976E+04   -0.32989E-01   -0.49785E-03  8183   0.423E-02    0.825E+00
RMM: 458    -0.359910141127E+04   -0.66870E+00   -0.43798E-01  8704   0.346E-01    0.298E+01
RMM: 459    -0.359863361303E+04    0.46780E+00   -0.19607E-01  8654   0.402E-01    0.295E+01
RMM: 460    -0.359858885372E+04    0.44759E-01   -0.26022E-02  8462   0.119E-01    0.296E+01
RMM: 461    -0.359858021277E+04    0.86410E-02   -0.91471E-03  8150   0.652E-02    0.298E+01
RMM: 462    -0.359858057999E+04   -0.36722E-03   -0.36944E-03  7579   0.482E-02    0.300E+01
RMM: 463    -0.359873713034E+04   -0.15655E+00   -0.91964E-02  8530   0.160E-01    0.291E+01
RMM: 464    -0.359848984870E+04    0.24728E+00   -0.65550E-03  8249   0.555E-02    0.270E+01
RMM: 465    -0.359854232346E+04   -0.52475E-01   -0.79470E-03  8043   0.701E-02    0.264E+01
RMM: 466    -0.359878041665E+04   -0.23809E+00   -0.18465E-02  8365   0.905E-02    0.294E+01
RMM: 467    -0.359875886587E+04    0.21551E-01   -0.16512E-02  8450   0.966E-02    0.297E+01
RMM: 468    -0.359866811767E+04    0.90748E-01   -0.84928E-02  8375   0.147E-01    0.299E+01
RMM: 469    -0.359861181635E+04    0.56301E-01   -0.16693E-02  8339   0.890E-02    0.296E+01
RMM: 470    -0.359862098815E+04   -0.91718E-02   -0.11160E-02  8098   0.631E-02    0.296E+01
RMM: 471    -0.359857350431E+04    0.47484E-01   -0.46351E-03  7619   0.445E-02    0.296E+01
RMM: 472    -0.359849356254E+04    0.79942E-01   -0.50663E-03  7577   0.461E-02    0.298E+01
RMM: 473    -0.359793142602E+04    0.56214E+00   -0.70914E-02  8530   0.153E-01    0.280E+01
RMM: 474    -0.359790189480E+04    0.29531E-01   -0.55207E-01  8688   0.395E-01    0.111E+01
RMM: 475    -0.359826126688E+04   -0.35937E+00   -0.20283E-01  8644   0.351E-01    0.865E+00
RMM: 476    -0.359827967525E+04   -0.18408E-01   -0.58235E-02  8599   0.211E-01    0.859E+00
RMM: 477    -0.359819460535E+04    0.85070E-01   -0.44206E-02  8630   0.125E-01    0.800E+00
RMM: 478    -0.359820927484E+04   -0.14669E-01   -0.17719E-01  8708   0.198E-01    0.650E+00
RMM: 479    -0.359822073289E+04   -0.11458E-01   -0.90975E-02  8522   0.202E-01    0.536E+00
RMM: 480    -0.359826049768E+04   -0.39765E-01   -0.13311E-02  7873   0.914E-02    0.565E+00
RMM: 481    -0.359823742315E+04    0.23075E-01   -0.27094E-03  7250   0.260E-02    0.509E+00
RMM: 482    -0.359825052388E+04   -0.13101E-01   -0.25982E-03  7300   0.431E-02    0.498E+00
RMM: 483    -0.359823160026E+04    0.18924E-01   -0.91240E-02  8545   0.187E-01    0.435E+00
RMM: 484    -0.359831168682E+04   -0.80087E-01   -0.54403E-02  8573   0.210E-01    0.759E+00
RMM: 485    -0.359829409912E+04    0.17588E-01   -0.18042E-02  8075   0.110E-01    0.857E+00
RMM: 486    -0.359826136155E+04    0.32738E-01   -0.83880E-03  8144   0.750E-02    0.904E+00
RMM: 487    -0.359826236840E+04   -0.10069E-02   -0.19711E-03  7727   0.346E-02    0.881E+00
RMM: 488    -0.359825196989E+04    0.10399E-01   -0.25105E-02  8600   0.978E-02    0.577E+00
RMM: 489    -0.359829952643E+04   -0.47557E-01   -0.11538E-02  8173   0.814E-02    0.713E+00
RMM: 490    -0.359828114611E+04    0.18380E-01   -0.11494E-02  7982   0.672E-02    0.708E+00
RMM: 491    -0.359827898714E+04    0.21590E-02   -0.21167E-03  7109   0.295E-02    0.717E+00
RMM: 492    -0.359827889251E+04    0.94629E-04   -0.74191E-04  6321   0.243E-02    0.721E+00
RMM: 493    -0.359824239878E+04    0.36494E-01   -0.56470E-02  8616   0.143E-01    0.922E+00
RMM: 494    -0.359824603258E+04   -0.36338E-02   -0.37417E-02  8206   0.852E-02    0.932E+00
RMM: 495    -0.359828000175E+04   -0.33969E-01   -0.13146E-02  7757   0.102E-01    0.932E+00
RMM: 496    -0.359826082625E+04    0.19176E-01   -0.31427E-03  7910   0.400E-02    0.923E+00
RMM: 497    -0.359824607251E+04    0.14754E-01   -0.14249E-03  7660   0.232E-02    0.905E+00
RMM: 498    -0.359818911191E+04    0.56961E-01   -0.22562E-02  8465   0.907E-02    0.608E+00
RMM: 499    -0.359821289341E+04   -0.23782E-01   -0.34268E-02  8538   0.129E-01    0.889E+00
RMM: 500    -0.359819941533E+04    0.13478E-01   -0.85757E-03  7994   0.771E-02    0.901E+00
RMM: 501    -0.359819076505E+04    0.86503E-02   -0.10164E-03  7158   0.265E-02    0.901E+00
RMM: 502    -0.359817989881E+04    0.10866E-01   -0.81208E-04  6879   0.183E-02    0.904E+00
RMM: 503    -0.359816599252E+04    0.13906E-01   -0.16934E-01  8696   0.233E-01    0.843E+00
RMM: 504    -0.359826736560E+04   -0.10137E+00   -0.91731E-02  8609   0.232E-01    0.884E+00
RMM: 505    -0.359834121207E+04   -0.73846E-01   -0.47397E-02  8539   0.181E-01    0.888E+00
RMM: 506    -0.359830347767E+04    0.37734E-01   -0.20869E-02  8524   0.105E-01    0.852E+00
RMM: 507    -0.359832378851E+04   -0.20311E-01   -0.29009E-03  8016   0.386E-02    0.817E+00
RMM: 508    -0.359833754801E+04   -0.13760E-01   -0.16382E-02  8528   0.778E-02    0.755E+00
RMM: 509    -0.359829592017E+04    0.41628E-01   -0.32845E-02  8510   0.137E-01    0.768E+00
RMM: 510    -0.359832054822E+04   -0.24628E-01   -0.15498E-02  8289   0.107E-01    0.793E+00
RMM: 511    -0.359830012661E+04    0.20422E-01   -0.86073E-03  8439   0.694E-02    0.798E+00
RMM: 512    -0.359829683583E+04    0.32908E-02   -0.11654E-03  7665   0.255E-02    0.794E+00
RMM: 513    -0.359837641971E+04   -0.79584E-01   -0.63712E-02  8687   0.156E-01    0.726E+00
RMM: 514    -0.359840374045E+04   -0.27321E-01   -0.18086E-02  8314   0.124E-01    0.744E+00
RMM: 515    -0.359838498269E+04    0.18758E-01   -0.13894E-02  8377   0.921E-02    0.772E+00
RMM: 516    -0.359841680535E+04   -0.31823E-01   -0.96456E-03  8175   0.822E-02    0.790E+00
RMM: 517    -0.359841885529E+04   -0.20499E-02   -0.46012E-03  7876   0.542E-02    0.857E+00
RMM: 518    -0.359896097929E+04   -0.54212E+00   -0.45926E-01  8706   0.365E-01    0.250E+01
RMM: 519    -0.359825818285E+04    0.70280E+00   -0.26974E-01  8708   0.440E-01    0.141E+01
RMM: 520    -0.359813302959E+04    0.12515E+00   -0.19857E-01  8712   0.308E-01    0.835E+00
RMM: 521    -0.359831175654E+04   -0.17873E+00   -0.74791E-02  8588   0.265E-01    0.862E+00
RMM: 522    -0.359828640081E+04    0.25356E-01   -0.99018E-03  8382   0.955E-02    0.856E+00
RMM: 523    -0.359815252051E+04    0.13388E+00   -0.70291E-02  8652   0.138E-01    0.799E+00
RMM: 524    -0.359824874621E+04   -0.96226E-01   -0.15720E-02  8273   0.849E-02    0.847E+00
RMM: 525    -0.359827981448E+04   -0.31068E-01   -0.84453E-03  8355   0.497E-02    0.870E+00
RMM: 526    -0.359829288372E+04   -0.13069E-01   -0.55553E-03  7916   0.301E-02    0.871E+00
RMM: 527    -0.359830916379E+04   -0.16280E-01   -0.21050E-03  7151   0.369E-02    0.870E+00
RMM: 528    -0.359826802830E+04    0.41135E-01   -0.56685E-02  8365   0.164E-01    0.526E+00
RMM: 529    -0.359833465064E+04   -0.66622E-01   -0.29500E-02  8574   0.131E-01    0.674E+00
RMM: 530    -0.359831295277E+04    0.21698E-01   -0.18156E-02  8293   0.733E-02    0.346E+00
RMM: 531    -0.359831733472E+04   -0.43820E-02   -0.15872E-02  8291   0.847E-02    0.304E+00
RMM: 532    -0.359832133841E+04   -0.40037E-02   -0.35062E-03  7868   0.474E-02    0.326E+00
RMM: 533    -0.359833790479E+04   -0.16566E-01   -0.85311E-03  8258   0.724E-02    0.485E+00
RMM: 534    -0.359832890186E+04    0.90029E-02   -0.67207E-03  7700   0.601E-02    0.559E+00
RMM: 535    -0.359831734880E+04    0.11553E-01   -0.18140E-03  7169   0.297E-02    0.569E+00
RMM: 536    -0.359831483427E+04    0.25145E-02   -0.70258E-04  6567   0.221E-02    0.582E+00
RMM: 537    -0.359831043414E+04    0.44001E-02   -0.20206E-03  7207   0.258E-02    0.610E+00
RMM: 538    -0.359831673469E+04   -0.63006E-02   -0.45110E-03  7645   0.428E-02    0.592E+00
RMM: 539    -0.359832243202E+04   -0.56973E-02   -0.11677E-03  6675   0.224E-02    0.601E+00
RMM: 540    -0.359831815332E+04    0.42787E-02   -0.17052E-02  8450   0.756E-02    0.589E+00
RMM: 541    -0.359831252333E+04    0.56300E-02   -0.41208E-02  8682   0.119E-01    0.592E+00
RMM: 542    -0.359830822636E+04    0.42970E-02   -0.91286E-03  8307   0.716E-02    0.526E+00
RMM: 543    -0.359822795273E+04    0.80274E-01   -0.11116E-01  8558   0.205E-01    0.711E+00
RMM: 544    -0.359835067398E+04   -0.12272E+00   -0.54556E-02  8523   0.203E-01    0.101E+01
RMM: 545    -0.359828178120E+04    0.68893E-01   -0.21326E-02  8388   0.124E-01    0.955E+00
RMM: 546    -0.359826372438E+04    0.18057E-01   -0.55035E-03  8066   0.444E-02    0.852E+00
RMM: 547    -0.359827024585E+04   -0.65215E-02   -0.38278E-03  7976   0.447E-02    0.776E+00
RMM: 548    -0.359830512261E+04   -0.34877E-01   -0.48710E-03  8147   0.584E-02    0.902E+00
RMM: 549    -0.359827373758E+04    0.31385E-01   -0.79522E-03  8221   0.616E-02    0.861E+00
RMM: 550    -0.359827654850E+04   -0.28109E-02   -0.11502E-03  7028   0.310E-02    0.897E+00
RMM: 551    -0.359827963252E+04   -0.30840E-02   -0.95150E-03  7966   0.763E-02    0.870E+00
RMM: 552    -0.359828650902E+04   -0.68765E-02   -0.41334E-03  8089   0.509E-02    0.806E+00
RMM: 553    -0.359840834755E+04   -0.12184E+00   -0.14228E-01  8699   0.277E-01    0.106E+01
RMM: 554    -0.359847922769E+04   -0.70880E-01   -0.28237E-02  8507   0.162E-01    0.105E+01
RMM: 555    -0.359853399086E+04   -0.54763E-01   -0.90189E-03  8495   0.829E-02    0.106E+01
RMM: 556    -0.359853483548E+04   -0.84462E-03   -0.84756E-04  7240   0.236E-02    0.106E+01
RMM: 557    -0.359857325520E+04   -0.38420E-01   -0.11469E-02  8600   0.656E-02    0.104E+01
RMM: 558    -0.359842425064E+04    0.14900E+00   -0.33099E-02  8432   0.106E-01    0.881E+00
RMM: 559    -0.359829981143E+04    0.12444E+00   -0.35955E-02  8681   0.111E-01    0.978E+00
RMM: 560    -0.359828630588E+04    0.13506E-01   -0.59656E-03  8260   0.730E-02    0.955E+00
RMM: 561    -0.359827837441E+04    0.79315E-02   -0.10130E-03  7670   0.266E-02    0.939E+00
RMM: 562    -0.359825349609E+04    0.24878E-01   -0.37952E-03  8228   0.390E-02    0.815E+00
RMM: 563    -0.359834103421E+04   -0.87538E-01   -0.10281E-01  8550   0.168E-01    0.106E+01
RMM: 564    -0.359834147640E+04   -0.44219E-03   -0.86543E-03  7983   0.708E-02    0.106E+01
RMM: 565    -0.359836241694E+04   -0.20941E-01   -0.61328E-03  8334   0.549E-02    0.106E+01
RMM: 566    -0.359839152909E+04   -0.29112E-01   -0.62984E-03  8272   0.405E-02    0.106E+01
RMM: 567    -0.359840133632E+04   -0.98072E-02   -0.54947E-03  8136   0.419E-02    0.106E+01
RMM: 568    -0.359845100962E+04   -0.49673E-01   -0.69949E-03  7890   0.585E-02    0.105E+01
RMM: 569    -0.359847813175E+04   -0.27122E-01   -0.24026E-03  8153   0.339E-02    0.106E+01
RMM: 570    -0.359845017354E+04    0.27958E-01   -0.15438E-03  7922   0.356E-02    0.105E+01
RMM: 571    -0.359849853783E+04   -0.48364E-01   -0.21862E-03  8242   0.324E-02    0.106E+01
RMM: 572    -0.359849520533E+04    0.33325E-02   -0.18506E-04  6014   0.132E-02    0.106E+01
RMM: 573    -0.359854845543E+04   -0.53250E-01   -0.35883E-03  8283   0.414E-02    0.107E+01
RMM: 574    -0.359856223866E+04   -0.13783E-01   -0.75431E-04  7607   0.242E-02    0.107E+01
RMM: 575    -0.359866585333E+04   -0.10361E+00   -0.99279E-03  8651   0.511E-02    0.109E+01
RMM: 576    -0.359870846266E+04   -0.42609E-01   -0.21798E-03  8266   0.291E-02    0.113E+01
RMM: 577    -0.359871326001E+04   -0.47974E-02   -0.67179E-04  7188   0.223E-02    0.113E+01
RMM: 578    -0.359818832259E+04    0.52494E+00   -0.46161E-01  8704   0.379E-01    0.681E+00
RMM: 579    -0.359839546946E+04   -0.20715E+00   -0.99114E-02  8607   0.259E-01    0.712E+00
RMM: 580    -0.359836267058E+04    0.32799E-01   -0.18593E-02  8328   0.960E-02    0.669E+00
RMM: 581    -0.359835817324E+04    0.44973E-02   -0.35025E-03  7786   0.464E-02    0.645E+00
RMM: 582    -0.359836110939E+04   -0.29361E-02   -0.30637E-03  7656   0.443E-02    0.624E+00
RMM: 583    -0.359852741482E+04   -0.16631E+00   -0.10291E-01  8706   0.193E-01    0.791E+00
RMM: 584    -0.359853415571E+04   -0.67409E-02   -0.10156E-02  8399   0.831E-02    0.788E+00
RMM: 585    -0.359856022943E+04   -0.26074E-01   -0.85208E-03  8367   0.485E-02    0.802E+00
RMM: 586    -0.359852796451E+04    0.32265E-01   -0.21053E-02  8344   0.114E-01    0.788E+00
RMM: 587    -0.359851267856E+04    0.15286E-01   -0.53812E-03  8158   0.349E-02    0.783E+00
RMM: 588    -0.359844462461E+04    0.68054E-01   -0.37617E-02  8351   0.941E-02    0.639E+00
RMM: 589    -0.359837916684E+04    0.65458E-01   -0.10056E-01  8706   0.180E-01    0.629E+00
RMM: 590    -0.359835001737E+04    0.29149E-01   -0.16126E-02  8350   0.899E-02    0.612E+00
RMM: 591    -0.359830823790E+04    0.41779E-01   -0.50617E-02  8483   0.116E-01    0.671E+00
RMM: 592    -0.359829108283E+04    0.17155E-01   -0.38672E-02  8317   0.162E-01    0.545E+00
RMM: 593    -0.359837606966E+04   -0.84987E-01   -0.17557E-01  8710   0.267E-01    0.741E+00
RMM: 594    -0.359839453387E+04   -0.18464E-01   -0.24250E-02  8523   0.127E-01    0.752E+00
RMM: 595    -0.359838330602E+04    0.11228E-01   -0.32224E-03  7850   0.432E-02    0.721E+00
RMM: 596    -0.359834279911E+04    0.40507E-01   -0.19316E-02  8558   0.875E-02    0.616E+00
RMM: 597    -0.359834095148E+04    0.18476E-02   -0.11865E-02  7991   0.868E-02    0.646E+00
RMM: 598    -0.359837436750E+04   -0.33416E-01   -0.26556E-02  8495   0.101E-01    0.906E+00
RMM: 599    -0.359834492158E+04    0.29446E-01   -0.35407E-02  8675   0.130E-01    0.937E+00
RMM: 600    -0.359833632935E+04    0.85922E-02   -0.13991E-03  7833   0.273E-02    0.941E+00
RMM: 601    -0.359833316572E+04    0.31636E-02   -0.17036E-04  6093   0.779E-03    0.921E+00
RMM: 602    -0.359833171147E+04    0.14542E-02   -0.10041E-03  7552   0.172E-02    0.798E+00
RMM: 603    -0.359839595973E+04   -0.64248E-01   -0.42563E-01  8704   0.357E-01    0.776E+00
RMM: 604    -0.359839939415E+04   -0.34344E-02   -0.35723E-01  8708   0.361E-01    0.106E+01
RMM: 605    -0.359838005566E+04    0.19338E-01   -0.10597E-01  8670   0.259E-01    0.882E+00
RMM: 606    -0.359837494009E+04    0.51156E-02   -0.24470E-02  8563   0.910E-02    0.746E+00
RMM: 607    -0.359838531622E+04   -0.10376E-01   -0.11702E-02  8391   0.772E-02    0.921E+00
RMM: 608    -0.359844898254E+04   -0.63666E-01   -0.59349E-02  8632   0.144E-01    0.849E+00
RMM: 609    -0.359846665850E+04   -0.17676E-01   -0.10402E-02  8175   0.717E-02    0.729E+00
RMM: 610    -0.359848311465E+04   -0.16456E-01   -0.20745E-02  8498   0.839E-02    0.680E+00
RMM: 611    -0.359851205785E+04   -0.28943E-01   -0.22830E-02  8282   0.116E-01    0.745E+00
RMM: 612    -0.359851113899E+04    0.91886E-03   -0.42294E-03  7589   0.541E-02    0.746E+00
RMM: 613    -0.359850404183E+04    0.70972E-02   -0.39713E-02  8586   0.125E-01    0.606E+00
RMM: 614    -0.359850798509E+04   -0.39433E-02   -0.24981E-02  8429   0.132E-01    0.686E+00
RMM: 615    -0.359850058572E+04    0.73994E-02   -0.45769E-03  7651   0.546E-02    0.719E+00
RMM: 616    -0.359848192136E+04    0.18664E-01   -0.17422E-03  7818   0.303E-02    0.694E+00
RMM: 617    -0.359847497026E+04    0.69511E-02   -0.42816E-03  8257   0.342E-02    0.613E+00
RMM: 618    -0.359905559777E+04   -0.58063E+00   -0.72767E-01  8698   0.412E-01    0.111E+01
RMM: 619    -0.359871324639E+04    0.34235E+00   -0.27045E-01  8696   0.326E-01    0.965E+00
RMM: 620    -0.359869202583E+04    0.21221E-01   -0.24075E-02  8408   0.969E-02    0.943E+00
RMM: 621    -0.359865977572E+04    0.32250E-01   -0.49249E-02  8569   0.121E-01    0.963E+00
RMM: 622    -0.359865926417E+04    0.51155E-03   -0.89134E-03  8000   0.483E-02    0.966E+00
RMM: 623    -0.359872973197E+04   -0.70468E-01   -0.10612E-01  8682   0.172E-01    0.101E+01
RMM: 624    -0.359875812526E+04   -0.28393E-01   -0.60781E-03  8316   0.522E-02    0.102E+01
RMM: 625    -0.359876642611E+04   -0.83009E-02   -0.75658E-04  7389   0.171E-02    0.102E+01
RMM: 626    -0.359875612602E+04    0.10300E-01   -0.47375E-04  5877   0.101E-02    0.102E+01
RMM: 627    -0.359859888046E+04    0.15725E+00   -0.52027E-02  8392   0.594E-02    0.100E+01
RMM: 628    -0.359846670186E+04    0.13218E+00   -0.16420E-01  8699   0.153E-01    0.984E+00
RMM: 629    -0.359837134067E+04    0.95361E-01   -0.26220E-02  8564   0.494E-02    0.979E+00
RMM: 630    -0.359835928523E+04    0.12055E-01   -0.19735E-03  7539   0.192E-02    0.979E+00
RMM: 631    -0.359833226630E+04    0.27019E-01   -0.15947E-03  7382   0.158E-02    0.972E+00
RMM: 632    -0.359835047352E+04   -0.18207E-01   -0.66131E-03  7405   0.267E-02    0.958E+00
RMM: 633    -0.359852850931E+04   -0.17804E+00   -0.75044E-01  8675   0.306E-01    0.855E+00
RMM: 634    -0.359867396478E+04   -0.14546E+00   -0.73057E-02  8452   0.978E-02    0.857E+00
RMM: 635    -0.359872208668E+04   -0.48122E-01   -0.81667E-03  8281   0.460E-02    0.857E+00
RMM: 636    -0.359877644583E+04   -0.54359E-01   -0.62586E-03  8534   0.345E-02    0.861E+00
RMM: 637    -0.359882384506E+04   -0.47399E-01   -0.43467E-03  8507   0.328E-02    0.868E+00
RMM: 638    -0.359886621262E+04   -0.42368E-01   -0.93795E-02  8700   0.161E-01    0.856E+00
RMM: 639    -0.359894977457E+04   -0.83562E-01   -0.10116E-01  8696   0.172E-01    0.815E+00
RMM: 640    -0.359902380937E+04   -0.74035E-01   -0.91973E-02  8698   0.138E-01    0.810E+00
RMM: 641    -0.359918128415E+04   -0.15747E+00   -0.61165E-02  8691   0.113E-01    0.819E+00
RMM: 642    -0.359929468827E+04   -0.11340E+00   -0.48280E-02  8678   0.885E-02    0.837E+00
RMM: 643    -0.359919574391E+04    0.98944E-01   -0.54576E-02  8663   0.141E-01    0.808E+00
RMM: 644    -0.359919749296E+04   -0.17491E-02   -0.19575E-03  7510   0.290E-02    0.805E+00
RMM: 645    -0.359919494345E+04    0.25495E-02   -0.11719E-03  6698   0.158E-02    0.805E+00
RMM: 646    -0.359913469693E+04    0.60247E-01   -0.97525E-03  8523   0.586E-02    0.792E+00
RMM: 647    -0.359905848213E+04    0.76215E-01   -0.21506E-02  8556   0.771E-02    0.771E+00
RMM: 648    -0.360088665087E+04   -0.18282E+01   -0.18967E+00  8702   0.625E-01    0.332E+01
RMM: 649    -0.360133714494E+04   -0.45049E+00   -0.33251E-01  8704   0.471E-01    0.399E+01
RMM: 650    -0.360075033023E+04    0.58681E+00   -0.60676E-02  8639   0.191E-01    0.374E+01
RMM: 651    -0.360014093064E+04    0.60940E+00   -0.15275E-02  8648   0.710E-02    0.330E+01
RMM: 652    -0.360012835394E+04    0.12577E-01   -0.16385E-02  8458   0.114E-01    0.320E+01
RMM: 653    -0.359935238113E+04    0.77597E+00   -0.28490E-02  8675   0.101E-01    0.259E+01
RMM: 654    -0.359937920450E+04   -0.26823E-01   -0.53844E-02  8560   0.200E-01    0.254E+01
RMM: 655    -0.359948151068E+04   -0.10231E+00   -0.89155E-02  8679   0.246E-01    0.263E+01
RMM: 656    -0.359955348684E+04   -0.71976E-01   -0.94099E-02  8686   0.234E-01    0.274E+01
RMM: 657    -0.359953195390E+04    0.21533E-01   -0.10205E-01  8521   0.212E-01    0.270E+01
RMM: 658    -0.359959047824E+04   -0.58524E-01   -0.63637E-01  8708   0.357E-01    0.322E+01
RMM: 659    -0.359964069595E+04   -0.50218E-01   -0.98716E-02  8615   0.287E-01    0.318E+01
RMM: 660    -0.359945598261E+04    0.18471E+00   -0.21312E-02  8396   0.929E-02    0.311E+01
RMM: 661    -0.359958812178E+04   -0.13214E+00   -0.14641E-02  8295   0.665E-02    0.321E+01
RMM: 662    -0.359982295797E+04   -0.23484E+00   -0.49497E-02  8254   0.110E-01    0.326E+01
RMM: 663    -0.359849330620E+04    0.13297E+01   -0.48507E-01  8710   0.356E-01    0.232E+01
RMM: 664    -0.359885943625E+04   -0.36613E+00   -0.44351E-01  8690   0.341E-01    0.255E+01
RMM: 665    -0.359834115848E+04    0.51828E+00   -0.12115E+00  8718   0.425E-01    0.890E+00
RMM: 666    -0.359862927079E+04   -0.28811E+00   -0.31013E-01  8668   0.475E-01    0.901E+00
RMM: 667    -0.359865684627E+04   -0.27575E-01   -0.48939E-02  8673   0.145E-01    0.886E+00
RMM: 668    -0.359875024494E+04   -0.93399E-01   -0.46877E-02  8696   0.128E-01    0.989E+00
RMM: 669    -0.359874952495E+04    0.71999E-03   -0.82951E-03  8434   0.826E-02    0.101E+01
RMM: 670    -0.359875324562E+04   -0.37207E-02   -0.17198E-02  8626   0.806E-02    0.935E+00
RMM: 671    -0.359868869308E+04    0.64553E-01   -0.18169E-01  8702   0.237E-01    0.693E+00
RMM: 672    -0.359872735403E+04   -0.38661E-01   -0.10547E-01  8701   0.190E-01    0.105E+01
RMM: 673    -0.359866778036E+04    0.59574E-01   -0.75415E-02  8687   0.234E-01    0.105E+01
RMM: 674    -0.359862852339E+04    0.39257E-01   -0.55470E-03  8127   0.593E-02    0.105E+01
RMM: 675    -0.359862702727E+04    0.14961E-02   -0.81633E-04  6929   0.258E-02    0.105E+01
RMM: 676    -0.359863376734E+04   -0.67401E-02   -0.32692E-04  6528   0.133E-02    0.106E+01
RMM: 677    -0.359855945918E+04    0.74308E-01   -0.13867E-02  8601   0.730E-02    0.111E+01
RMM: 678    -0.359862491385E+04   -0.65455E-01   -0.32495E-02  8699   0.125E-01    0.106E+01
RMM: 679    -0.359856393603E+04    0.60978E-01   -0.18020E-02  8626   0.946E-02    0.110E+01
RMM: 680    -0.359857828630E+04   -0.14350E-01   -0.77734E-03  8365   0.913E-02    0.108E+01
RMM: 681    -0.359860535397E+04   -0.27068E-01   -0.64072E-03  8469   0.657E-02    0.109E+01
RMM: 682    -0.359860600840E+04   -0.65442E-03   -0.13532E-03  7859   0.407E-02    0.109E+01
RMM: 683    -0.359857551459E+04    0.30494E-01   -0.22607E-02  8684   0.943E-02    0.125E+01
RMM: 684    -0.359857989348E+04   -0.43789E-02   -0.99613E-03  8449   0.102E-01    0.129E+01
RMM: 685    -0.359856114851E+04    0.18745E-01   -0.40509E-03  8084   0.497E-02    0.138E+01
RMM: 686    -0.359856145113E+04   -0.30262E-03   -0.35937E-03  7837   0.429E-02    0.141E+01
RMM: 687    -0.359850068791E+04    0.60763E-01   -0.41754E-03  8329   0.439E-02    0.139E+01
RMM: 688    -0.359845866252E+04    0.42025E-01   -0.10173E-02  8498   0.551E-02    0.115E+01
RMM: 689    -0.359849313042E+04   -0.34468E-01   -0.10902E-02  8440   0.782E-02    0.102E+01
RMM: 690    -0.359853377496E+04   -0.40645E-01   -0.63658E-03  8472   0.658E-02    0.106E+01
RMM: 691    -0.359853333145E+04    0.44351E-03   -0.10619E-02  8657   0.675E-02    0.705E+00
RMM: 692    -0.359866299443E+04   -0.12966E+00   -0.34648E-02  8537   0.162E-01    0.943E+00
RMM: 693    -0.359861699042E+04    0.46004E-01   -0.60485E-02  8690   0.215E-01    0.730E+00
RMM: 694    -0.359866953262E+04   -0.52542E-01   -0.37853E-02  8574   0.166E-01    0.693E+00
RMM: 695    -0.359881900943E+04   -0.14948E+00   -0.32493E-02  8532   0.120E-01    0.112E+01
RMM: 696    -0.359880744549E+04    0.11564E-01   -0.45708E-02  8516   0.175E-01    0.113E+01
RMM: 697    -0.359881459606E+04   -0.71506E-02   -0.57242E-03  8410   0.581E-02    0.112E+01
RMM: 698    -0.359849337704E+04    0.32122E+00   -0.12236E-01  8708   0.219E-01    0.120E+01
RMM: 699    -0.359850030779E+04   -0.69308E-02   -0.29774E-02  8661   0.140E-01    0.123E+01
RMM: 700    -0.359853152879E+04   -0.31221E-01   -0.16206E-02  8650   0.877E-02    0.121E+01
RMM: 701    -0.359842832334E+04    0.10321E+00   -0.28591E-02  8581   0.142E-01    0.712E+00
RMM: 702    -0.359854388275E+04   -0.11556E+00   -0.34910E-02  8547   0.144E-01    0.607E+00
RMM: 703    -0.359854815018E+04   -0.42674E-02   -0.74087E-02  8700   0.230E-01    0.515E+00
RMM: 704    -0.359857463500E+04   -0.26485E-01   -0.35540E-02  8610   0.195E-01    0.561E+00
RMM: 705    -0.359855253730E+04    0.22098E-01   -0.14339E-02  8435   0.838E-02    0.526E+00
RMM: 706    -0.359855161869E+04    0.91861E-03   -0.60725E-03  8292   0.440E-02    0.530E+00
RMM: 707    -0.359856682577E+04   -0.15207E-01   -0.10893E-02  8286   0.537E-02    0.604E+00
RMM: 708    -0.359855538182E+04    0.11444E-01   -0.17559E-01  8705   0.227E-01    0.681E+00
RMM: 709    -0.359857611850E+04   -0.20737E-01   -0.11307E-01  8679   0.206E-01    0.655E+00
RMM: 710    -0.359859717162E+04   -0.21053E-01   -0.11945E-02  8273   0.104E-01    0.660E+00
RMM: 711    -0.359860566380E+04   -0.84922E-02   -0.19294E-03  7844   0.345E-02    0.662E+00
RMM: 712    -0.359859544445E+04    0.10219E-01   -0.14465E-03  7754   0.306E-02    0.665E+00
RMM: 713    -0.359858186106E+04    0.13583E-01   -0.21247E-03  7855   0.298E-02    0.656E+00
RMM: 714    -0.359857736931E+04    0.44917E-02   -0.15945E-03  7517   0.254E-02    0.657E+00
RMM: 715    -0.359857438896E+04    0.29804E-02   -0.55620E-04  6893   0.225E-02    0.659E+00
RMM: 716    -0.359857335915E+04    0.10298E-02   -0.43782E-03  8266   0.426E-02    0.702E+00
RMM: 717    -0.359849832087E+04    0.75038E-01   -0.17936E-02  8352   0.899E-02    0.701E+00
RMM: 718    -0.359864909197E+04   -0.15077E+00   -0.17867E-01  8623   0.220E-01    0.154E+01
RMM: 719    -0.359840411526E+04    0.24498E+00   -0.16254E-01  8658   0.336E-01    0.534E+00
RMM: 720    -0.359853914016E+04   -0.13502E+00   -0.93217E-02  8644   0.268E-01    0.116E+01
RMM: 721    -0.359841595344E+04    0.12319E+00   -0.64349E-02  8643   0.247E-01    0.487E+00
RMM: 722    -0.359848207100E+04   -0.66118E-01   -0.49151E-02  8643   0.202E-01    0.786E+00
RMM: 723    -0.359854977420E+04   -0.67703E-01   -0.68024E-02  8699   0.207E-01    0.113E+01
RMM: 724    -0.359850669100E+04    0.43083E-01   -0.38362E-02  8599   0.212E-01    0.116E+01
RMM: 725    -0.359847254629E+04    0.34145E-01   -0.64368E-03  8342   0.851E-02    0.116E+01
RMM: 726    -0.359846046024E+04    0.12086E-01   -0.63900E-04  7273   0.261E-02    0.116E+01
RMM: 727    -0.359847326394E+04   -0.12804E-01   -0.45594E-03  8271   0.419E-02    0.120E+01
RMM: 728    -0.359848842203E+04   -0.15158E-01   -0.20362E-02  8610   0.121E-01    0.129E+01
RMM: 729    -0.359848859237E+04   -0.17033E-03   -0.14982E-02  8358   0.115E-01    0.141E+01
RMM: 730    -0.359848461845E+04    0.39739E-02   -0.13612E-02  8457   0.109E-01    0.137E+01
RMM: 731    -0.359849164045E+04   -0.70220E-02   -0.71087E-04  7011   0.206E-02    0.138E+01
RMM: 732    -0.359850474935E+04   -0.13109E-01   -0.81199E-04  6673   0.205E-02    0.141E+01
RMM: 733    -0.359839405379E+04    0.11070E+00   -0.74864E-03  8414   0.600E-02    0.136E+01
RMM: 734    -0.359837115471E+04    0.22899E-01   -0.75838E-03  8282   0.823E-02    0.135E+01
RMM: 735    -0.359836613222E+04    0.50225E-02   -0.12729E-03  7767   0.342E-02    0.134E+01
RMM: 736    -0.359836389402E+04    0.22382E-02   -0.49222E-03  8287   0.477E-02    0.138E+01
RMM: 737    -0.359837953299E+04   -0.15639E-01   -0.19419E-03  7739   0.425E-02    0.139E+01
RMM: 738    -0.359827806510E+04    0.10147E+00   -0.15899E-02  8648   0.684E-02    0.112E+01
RMM: 739    -0.359832591058E+04   -0.47845E-01   -0.11988E-02  8469   0.968E-02    0.892E+00
RMM: 740    -0.359839451077E+04   -0.68600E-01   -0.12492E-02  8330   0.913E-02    0.103E+01
RMM: 741    -0.359838199518E+04    0.12516E-01   -0.31733E-03  7979   0.563E-02    0.103E+01
RMM: 742    -0.359836357331E+04    0.18422E-01   -0.52238E-04  7025   0.220E-02    0.970E+00
RMM: 743    -0.359837566157E+04   -0.12088E-01   -0.66334E-03  8288   0.537E-02    0.795E+00
RMM: 744    -0.359842593254E+04   -0.50271E-01   -0.10959E-02  8424   0.892E-02    0.560E+00
RMM: 745    -0.359851132860E+04   -0.85396E-01   -0.15068E-02  8361   0.107E-01    0.504E+00
RMM: 746    -0.359853151920E+04   -0.20191E-01   -0.84239E-03  8268   0.903E-02    0.501E+00
RMM: 747    -0.359852483888E+04    0.66803E-02   -0.19642E-03  7968   0.392E-02    0.474E+00
RMM: 748    -0.359852301138E+04    0.18275E-02   -0.52032E-03  8326   0.662E-02    0.483E+00
RMM: 749    -0.359853108406E+04   -0.80727E-02   -0.56397E-03  8336   0.780E-02    0.562E+00
RMM: 750    -0.359852539061E+04    0.56934E-02   -0.39012E-03  8016   0.624E-02    0.593E+00
RMM: 751    -0.359851797350E+04    0.74171E-02   -0.12511E-03  7408   0.354E-02    0.599E+00
RMM: 752    -0.359851526158E+04    0.27119E-02   -0.88948E-05  5352   0.884E-03    0.599E+00
RMM: 753    -0.359851687226E+04   -0.16107E-02   -0.66598E-03  8380   0.567E-02    0.600E+00
RMM: 754    -0.359851397476E+04    0.28975E-02   -0.45746E-03  8199   0.623E-02    0.681E+00
RMM: 755    -0.359849856684E+04    0.15408E-01   -0.32787E-03  7526   0.496E-02    0.762E+00
RMM: 756    -0.359846485194E+04    0.33715E-01   -0.33665E-03  8259   0.485E-02    0.660E+00
RMM: 757    -0.359849218325E+04   -0.27331E-01   -0.62644E-03  8001   0.713E-02    0.630E+00
RMM: 758    -0.359849455536E+04   -0.23721E-02   -0.12203E-02  8302   0.828E-02    0.613E+00
RMM: 759    -0.359849129261E+04    0.32627E-02   -0.48215E-03  8060   0.557E-02    0.626E+00
RMM: 760    -0.359848853751E+04    0.27551E-02   -0.17542E-03  7547   0.433E-02    0.626E+00
RMM: 761    -0.359849705764E+04   -0.85201E-02   -0.29385E-03  8078   0.365E-02    0.614E+00
RMM: 762    -0.359849323459E+04    0.38231E-02   -0.71002E-03  8258   0.718E-02    0.606E+00
RMM: 763    -0.359845620223E+04    0.37032E-01   -0.14372E-02  8527   0.753E-02    0.390E+00
RMM: 764    -0.359848275416E+04   -0.26552E-01   -0.11191E-02  8299   0.844E-02    0.235E+00
RMM: 765    -0.359849929179E+04   -0.16538E-01   -0.92438E-03  8279   0.869E-02    0.232E+00
RMM: 766    -0.359851292215E+04   -0.13630E-01   -0.46288E-03  7901   0.527E-02    0.381E+00
RMM: 767    -0.359849805938E+04    0.14863E-01   -0.57525E-03  8113   0.702E-02    0.329E+00
RMM: 768    -0.359851109250E+04   -0.13033E-01   -0.11680E-02  8465   0.792E-02    0.244E+00
RMM: 769    -0.359851658384E+04   -0.54913E-02   -0.51885E-03  8173   0.565E-02    0.418E+00
RMM: 770    -0.359850646622E+04    0.10118E-01   -0.40462E-03  8297   0.517E-02    0.345E+00
RMM: 771    -0.359851407539E+04   -0.76092E-02   -0.18654E-03  8065   0.291E-02    0.315E+00
RMM: 772    -0.359852064226E+04   -0.65669E-02   -0.22735E-03  8166   0.365E-02    0.387E+00
RMM: 773    -0.359850988510E+04    0.10757E-01   -0.59772E-03  8459   0.639E-02    0.341E+00
RMM: 774    -0.359850980089E+04    0.84208E-04   -0.19603E-03  7952   0.410E-02    0.381E+00
RMM: 775    -0.359850116991E+04    0.86310E-02   -0.10414E-03  7617   0.234E-02    0.337E+00
RMM: 776    -0.359850600239E+04   -0.48325E-02   -0.44889E-04  6491   0.193E-02    0.330E+00
RMM: 777    -0.359850831072E+04   -0.23083E-02   -0.88107E-05  5332   0.852E-03    0.334E+00
RMM: 778    -0.359850580014E+04    0.25106E-02   -0.15891E-03  7763   0.289E-02    0.188E+00
RMM: 779    -0.359851971257E+04   -0.13912E-01   -0.56348E-03  8061   0.683E-02    0.227E+00
RMM: 780    -0.359851566281E+04    0.40498E-02   -0.18627E-03  7604   0.371E-02    0.219E+00
RMM: 781    -0.359851676051E+04   -0.10977E-02   -0.37903E-04  6261   0.187E-02    0.216E+00
RMM: 782    -0.359851691968E+04   -0.15916E-03   -0.12541E-03  7652   0.340E-02    0.225E+00
RMM: 783    -0.359852242754E+04   -0.55079E-02   -0.63736E-03  8293   0.738E-02    0.264E+00
RMM: 784    -0.359852670724E+04   -0.42797E-02   -0.27878E-03  7723   0.470E-02    0.292E+00
RMM: 785    -0.359852609357E+04    0.61367E-03   -0.13312E-03  7268   0.288E-02    0.297E+00
RMM: 786    -0.359852595133E+04    0.14224E-03   -0.34498E-04  6220   0.174E-02    0.303E+00
RMM: 787    -0.359852719841E+04   -0.12471E-02   -0.74272E-04  7364   0.203E-02    0.324E+00
RMM: 788    -0.359851550351E+04    0.11695E-01   -0.14229E-02  8634   0.842E-02    0.233E+00
RMM: 789    -0.359852166842E+04   -0.61649E-02   -0.59384E-03  8217   0.748E-02    0.225E+00
RMM: 790    -0.359851375640E+04    0.79120E-02   -0.55715E-03  8364   0.422E-02    0.160E+00
RMM: 791    -0.359851755026E+04   -0.37939E-02   -0.19984E-03  7824   0.367E-02    0.201E+00
RMM: 792    -0.359851875571E+04   -0.12055E-02   -0.43502E-03  8213   0.571E-02    0.293E+00
RMM: 793    -0.359850080735E+04    0.17948E-01   -0.76725E-03  8128   0.778E-02    0.164E+00
RMM: 794    -0.359851599167E+04   -0.15184E-01   -0.14184E-02  8585   0.751E-02    0.199E+00
RMM: 795    -0.359852415258E+04   -0.81609E-02   -0.43863E-03  8196   0.442E-02    0.213E+00
RMM: 796    -0.359852503471E+04   -0.88213E-03   -0.15208E-03  7373   0.383E-02    0.213E+00
RMM: 797    -0.359852410448E+04    0.93024E-03   -0.20571E-04  6163   0.128E-02    0.213E+00
RMM: 798    -0.359857473556E+04   -0.50631E-01   -0.93193E-02  8697   0.187E-01    0.134E+01
RMM: 799    -0.359841870838E+04    0.15603E+00   -0.11597E-01  8694   0.325E-01    0.593E+00
RMM: 800    -0.359847849283E+04   -0.59784E-01   -0.85086E-02  8581   0.290E-01    0.248E+00
RMM: 801    -0.359852077514E+04   -0.42282E-01   -0.20446E-02  8307   0.142E-01    0.225E+00
RMM: 802    -0.359852633307E+04   -0.55579E-02   -0.55119E-03  8201   0.668E-02    0.226E+00
RMM: 803    -0.359853495520E+04   -0.86221E-02   -0.21684E-02  8650   0.798E-02    0.247E+00
RMM: 804    -0.359854583630E+04   -0.10881E-01   -0.63825E-03  8247   0.693E-02    0.245E+00
RMM: 805    -0.359855055569E+04   -0.47194E-02   -0.11868E-03  7783   0.210E-02    0.254E+00
RMM: 806    -0.359854667274E+04    0.38829E-02   -0.97104E-04  7385   0.291E-02    0.244E+00
RMM: 807    -0.359854635500E+04    0.31774E-03   -0.49227E-05  5208   0.502E-03    0.243E+00
RMM: 808    -0.359855706630E+04   -0.10711E-01   -0.26350E-03  8199   0.335E-02    0.288E+00
RMM: 809    -0.359856133400E+04   -0.42677E-02   -0.16759E-03  8024   0.296E-02    0.322E+00
RMM: 810    -0.359855605258E+04    0.52814E-02   -0.12594E-03  7602   0.304E-02    0.316E+00
RMM: 811    -0.359855877431E+04   -0.27217E-02   -0.11728E-03  7666   0.233E-02    0.326E+00
RMM: 812    -0.359856489306E+04   -0.61187E-02   -0.17327E-03  7902   0.209E-02    0.347E+00
RMM: 813    -0.359856783525E+04   -0.29422E-02   -0.13415E-03  7830   0.179E-02    0.392E+00
RMM: 814    -0.359857047455E+04   -0.26393E-02   -0.19128E-03  8080   0.288E-02    0.423E+00
RMM: 815    -0.359857425663E+04   -0.37821E-02   -0.29991E-03  8226   0.333E-02    0.468E+00
RMM: 816    -0.359856954948E+04    0.47071E-02   -0.11845E-03  7410   0.270E-02    0.460E+00
RMM: 817    -0.359856815891E+04    0.13906E-02   -0.72427E-04  6533   0.183E-02    0.434E+00
RMM: 818    -0.359856121321E+04    0.69457E-02   -0.28168E-03  7938   0.331E-02    0.386E+00
RMM: 819    -0.359858055841E+04   -0.19345E-01   -0.36620E-03  8251   0.384E-02    0.429E+00
RMM: 820    -0.359858266336E+04   -0.21049E-02   -0.87172E-04  6928   0.236E-02    0.440E+00
RMM: 821    -0.359857213280E+04    0.10531E-01   -0.10118E-02  8598   0.666E-02    0.428E+00
RMM: 822    -0.359856851236E+04    0.36204E-02   -0.83888E-04  7440   0.225E-02    0.455E+00
RMM: 823    -0.359853176395E+04    0.36748E-01   -0.33604E-02  8670   0.111E-01    0.396E+00
RMM: 824    -0.359853638814E+04   -0.46242E-02   -0.31252E-03  8007   0.477E-02    0.418E+00
RMM: 825    -0.359852880320E+04    0.75849E-02   -0.79753E-04  7655   0.201E-02    0.411E+00
RMM: 826    -0.359853102666E+04   -0.22235E-02   -0.38211E-04  6892   0.166E-02    0.417E+00
RMM: 827    -0.359855449456E+04   -0.23468E-01   -0.10544E-02  8592   0.620E-02    0.448E+00
RMM: 828    -0.359855901840E+04   -0.45238E-02   -0.40629E-03  7880   0.402E-02    0.435E+00
RMM: 829    -0.359856049195E+04   -0.14736E-02   -0.22653E-03  6709   0.190E-02    0.459E+00
RMM: 830    -0.359855928915E+04    0.12028E-02   -0.10304E-03  6667   0.287E-02    0.496E+00
RMM: 831    -0.359855905286E+04    0.23629E-03   -0.31244E-03  7876   0.280E-02    0.606E+00
RMM: 832    -0.359855472193E+04    0.43309E-02   -0.79536E-03  7585   0.730E-02    0.722E+00
RMM: 833    -0.359854171626E+04    0.13006E-01   -0.20129E-02  8659   0.994E-02    0.104E+01
RMM: 834    -0.359850619920E+04    0.35517E-01   -0.18634E-02  8307   0.119E-01    0.113E+01
RMM: 835    -0.359847288138E+04    0.33318E-01   -0.36809E-03  7543   0.508E-02    0.114E+01
RMM: 836    -0.359846358809E+04    0.92933E-02   -0.39114E-04  6371   0.155E-02    0.114E+01
RMM: 837    -0.359845854246E+04    0.50456E-02   -0.81797E-04  7719   0.175E-02    0.115E+01
RMM: 838    -0.359839083697E+04    0.67705E-01   -0.24296E-03  7438   0.282E-02    0.105E+01
RMM: 839    -0.359841459247E+04   -0.23756E-01   -0.17526E-03  6987   0.378E-02    0.102E+01
RMM: 840    -0.359841787367E+04   -0.32812E-02   -0.42074E-04  7043   0.168E-02    0.982E+00
RMM: 841    -0.359839596789E+04    0.21906E-01   -0.20268E-03  7797   0.272E-02    0.886E+00
RMM: 842    -0.359837625204E+04    0.19716E-01   -0.60606E-03  8246   0.513E-02    0.772E+00
RMM: 843    -0.359884099130E+04   -0.46474E+00   -0.22117E-01  8708   0.256E-01    0.174E+01
RMM: 844    -0.359843419248E+04    0.40680E+00   -0.17265E-01  8658   0.398E-01    0.103E+01
RMM: 845    -0.359843244735E+04    0.17451E-02   -0.32493E-02  8555   0.157E-01    0.861E+00
RMM: 846    -0.359843449876E+04   -0.20514E-02   -0.17466E-02  8587   0.121E-01    0.683E+00
RMM: 847    -0.359843435822E+04    0.14054E-03   -0.23103E-02  8499   0.132E-01    0.453E+00
RMM: 848    -0.359850228887E+04   -0.67931E-01   -0.18761E-02  8351   0.132E-01    0.577E+00
RMM: 849    -0.359851694669E+04   -0.14658E-01   -0.68911E-03  8336   0.758E-02    0.723E+00
RMM: 850    -0.359845896217E+04    0.57985E-01   -0.53691E-02  8704   0.139E-01    0.207E+00
RMM: 851    -0.359852314136E+04   -0.64179E-01   -0.51020E-02  8681   0.218E-01    0.117E+00
[...]
RMM:   4    -0.360136226603E+04    0.93283E-01   -0.14611E-01  5903   0.256E-01    0.570E+00
RMM:   5    -0.360131717612E+04    0.45090E-01   -0.52400E-02  5910   0.212E-01    0.348E+00
RMM:   6    -0.360132985762E+04   -0.12681E-01   -0.18049E-02  5651   0.107E-01    0.360E+00
RMM:   7    -0.360132305312E+04    0.68045E-02   -0.83846E-03  5515   0.918E-02    0.334E+00
RMM:   8    -0.360131758374E+04    0.54694E-02   -0.83903E-03  5638   0.890E-02    0.209E+00
RMM:   9    -0.360132556147E+04   -0.79777E-02   -0.35497E-03  5363   0.594E-02    0.142E+00
RMM:  10    -0.360133129105E+04   -0.57296E-02   -0.13653E-03  5174   0.380E-02    0.903E-01
RMM:  11    -0.360133707970E+04   -0.57887E-02   -0.21050E-03  5500   0.340E-02    0.160E+00
RMM:  12    -0.360133375479E+04    0.33249E-02   -0.24644E-03  5719   0.394E-02    0.125E+00
RMM:  13    -0.360133624960E+04   -0.24948E-02   -0.17052E-03  5761   0.332E-02    0.152E+00
RMM:  14    -0.360133459131E+04    0.16583E-02   -0.83913E-04  5353   0.314E-02    0.147E+00
RMM:  15    -0.360133365501E+04    0.93630E-03   -0.85502E-04  5366   0.143E-02    0.889E-01
RMM:  16    -0.360133715301E+04   -0.34980E-02   -0.12127E-03  5959   0.313E-02    0.338E-01
RMM:  17    -0.360133977735E+04   -0.26243E-02   -0.95989E-04  5834   0.281E-02    0.270E-01
RMM:  18    -0.360134026225E+04   -0.48490E-03   -0.25029E-04  5311   0.174E-02    0.289E-01
RMM:  19    -0.360134024248E+04    0.19776E-04   -0.33157E-05  4688   0.754E-03    0.283E-01
RMM:  20    -0.360134019051E+04    0.51964E-04   -0.18583E-05  4293   0.398E-03    0.242E-01
RMM:  21    -0.360134022538E+04   -0.34862E-04   -0.28354E-05  4707   0.443E-03    0.189E-01
RMM:  22    -0.360134029920E+04   -0.73822E-04   -0.26974E-05  4870   0.551E-03    0.171E-01
RMM:  23    -0.360134032422E+04   -0.25018E-04   -0.30699E-05  4697   0.502E-03    0.174E-01
RMM:  24    -0.360134030524E+04    0.18978E-04   -0.14419E-05  4116   0.382E-03    0.157E-01
RMM:  25    -0.360134031607E+04   -0.10831E-04   -0.62311E-06  3758   0.216E-03    0.151E-01
RMM:  26    -0.360134031935E+04   -0.32832E-05   -0.94462E-07  3089   0.102E-03    0.142E-01
RMM:  27    -0.360134032412E+04   -0.47668E-05   -0.20852E-06  3230   0.109E-03    0.147E-01
RMM:  28    -0.360134033887E+04   -0.14752E-04   -0.40656E-05  4122   0.342E-03    0.773E-02
RMM:  29    -0.360134042449E+04   -0.85619E-04   -0.55070E-05  4494   0.463E-03    0.765E-02
RMM:  30    -0.360134044721E+04   -0.22721E-04   -0.18559E-05  4191   0.417E-03    0.940E-02
RMM:  31    -0.360134043733E+04    0.98839E-05   -0.71511E-06  3623   0.205E-03    0.801E-02
RMM:  32    -0.360134044372E+04   -0.63959E-05   -0.12560E-05  3675   0.173E-03    0.241E-02
RMM:  33    -0.360134046153E+04   -0.17811E-04   -0.67725E-06  3793   0.259E-03    0.368E-02
RMM:  34    -0.360134046026E+04    0.12777E-05   -0.17992E-06  3252   0.123E-03    0.417E-02
RMM:  35    -0.360134045723E+04    0.30222E-05   -0.13612E-06  3060   0.929E-04    0.219E-02
RMM:  36    -0.360134046204E+04   -0.48025E-05   -0.14722E-06  3117   0.105E-03    0.190E-02
RMM:  37    -0.360134046318E+04   -0.11416E-05   -0.12786E-06  3218   0.985E-04    0.134E-02
RMM:  38    -0.360134046358E+04   -0.39888E-06   -0.23517E-07  2613   0.447E-04
 augmentation electrons   1790.97020452265     
 soft         electrons  0.000000000000000E+000
 total        electrons   1790.97020452265     
 augmentation electrons -6.280873714569346E-002
 soft         electrons  0.000000000000000E+000
 total        electrons -6.280873714569346E-002
 augmentation electrons   1896.43861137009     
 soft         electrons  0.000000000000000E+000
 total        electrons   1896.43861137009     
 augmentation electrons   1841.60383528809     
 soft         electrons  0.000000000000000E+000
 total        electrons   1841.60383528809     
 augmentation electrons   59.0457501495159     
 soft         electrons   1731.92442878833     
 total        electrons   1790.97017893785     
 augmentation electrons   29.5452043873995     
 soft         electrons   1731.92442878833     
 total        electrons   49.1450010879913     
 translations:           0           1           0
 139 F= -.36383834E+04 E0= -.36383583E+04  d E =-.509528E-03  mag=    49.2078
 trial-energy change:   -0.000510  1 .order   -0.000452   -0.000591   -0.000313
 step:   0.2514(harm=  0.3792)  dis= 0.00047  next Energy= -3638.383436 (dE=-0.577E-03)
 bond charge predicted
       N       E                     dE             d eps       ncg     rms          rms(c)
RMM:   1    -0.360134059569E+04   -0.13251E-03   -0.31651E-03  5121   0.495E-02    0.140E-01
RMM:   2    -0.360134356372E+04   -0.29680E-02   -0.21493E-03  5358   0.275E-02    0.134E+00
RMM:   3    -0.360133780581E+04    0.57579E-02   -0.28682E-03  5444   0.513E-02    0.484E-01
RMM:   4    -0.360133982260E+04   -0.20168E-02   -0.10883E-03  5259   0.322E-02    0.145E-01
RMM:   5    -0.360134043932E+04   -0.61673E-03   -0.19846E-04  4969   0.169E-02    0.117E-01
RMM:   6    -0.360134052523E+04   -0.85904E-04   -0.61676E-05  4731   0.958E-03    0.493E-02
RMM:   7    -0.360134057154E+04   -0.46311E-04   -0.21141E-05  4240   0.474E-03    0.495E-02
RMM:   8    -0.360134057500E+04   -0.34616E-05   -0.86509E-06  3952   0.332E-03    0.467E-02
RMM:   9    -0.360134057489E+04    0.10844E-06   -0.61893E-06  3860   0.282E-03
 augmentation electrons   1790.96961177974     
 soft         electrons  0.000000000000000E+000
 total        electrons   1790.96961177974     
 augmentation electrons -6.281632078330573E-002
 soft         electrons  0.000000000000000E+000
 total        electrons -6.281632078330573E-002
 augmentation electrons   1896.35134885784     
 soft         electrons  0.000000000000000E+000
 total        electrons   1896.35134885784     
 augmentation electrons   1841.51657277584     
 soft         electrons  0.000000000000000E+000
 total        electrons   1841.51657277584     
 augmentation electrons   59.0451751949227     
 soft         electrons   1731.92441098422     
 total        electrons   1790.96958617914     
 augmentation electrons   29.5449563664662     
 soft         electrons   1731.92441098422     
 total        electrons   49.1444435726994     
 translations:           0           1           0
 140 F= -.36383834E+04 E0= -.36383583E+04  d E =-.584491E-03  mag=    49.2073
 curvature:  -0.29 expect dE=-0.357E-03 dE for cont linesearch -0.413E-04
 ZBRENT: increasing intervall
 opt :   0.3974  next Energy= -3638.383508 (dE=-0.650E-03)
 bond charge predicted
       N       E                     dE             d eps       ncg     rms          rms(c)
RMM:   1    -0.360134408688E+04   -0.35119E-02   -0.13191E-02  5120   0.101E-01    0.139E+00
RMM:   2    -0.360151613887E+04   -0.17205E+00   -0.18589E-01  5740   0.159E-01    0.772E+00
RMM:   3    -0.360134648054E+04    0.16966E+00   -0.13655E-01  5841   0.222E-01    0.503E+00
RMM:   4    -0.360131529820E+04    0.31182E-01   -0.52343E-02  5832   0.169E-01    0.316E+00
RMM:   5    -0.360132193964E+04   -0.66414E-02   -0.14243E-02  5627   0.121E-01    0.196E+00
RMM:   6    -0.360133084719E+04   -0.89075E-02   -0.48123E-03  5392   0.565E-02    0.173E+00
RMM:   7    -0.360133217052E+04   -0.13233E-02   -0.21811E-03  5309   0.488E-02    0.125E+00
RMM:   8    -0.360133565319E+04   -0.34827E-02   -0.16219E-03  5367   0.361E-02    0.926E-01
RMM:   9    -0.360133746793E+04   -0.18147E-02   -0.13255E-03  5411   0.385E-02    0.315E-01
RMM:  10    -0.360134025701E+04   -0.27891E-02   -0.13422E-03  5401   0.332E-02    0.292E-01
RMM:  11    -0.360134047351E+04   -0.21650E-03   -0.32744E-04  5112   0.209E-02    0.192E-01
RMM:  12    -0.360134062607E+04   -0.15256E-03   -0.95270E-05  4752   0.101E-02    0.311E-01
RMM:  13    -0.360134041237E+04    0.21370E-03   -0.80212E-05  4658   0.898E-03    0.349E-01
RMM:  14    -0.360134024570E+04    0.16668E-03   -0.20670E-05  4201   0.486E-03    0.343E-01
RMM:  15    -0.360134012198E+04    0.12371E-03   -0.42585E-05  4494   0.424E-03    0.152E-01
RMM:  16    -0.360134052945E+04   -0.40746E-03   -0.12752E-04  5357   0.101E-02    0.129E-01
RMM:  17    -0.360134063630E+04   -0.10685E-03   -0.67392E-05  4936   0.898E-03    0.108E-01
RMM:  18    -0.360134063210E+04    0.42009E-05   -0.69388E-06  3969   0.306E-03    0.932E-02
RMM:  19    -0.360134063668E+04   -0.45826E-05   -0.87960E-06  3990   0.194E-03    0.866E-02
RMM:  20    -0.360134063896E+04   -0.22796E-05   -0.95539E-06  4230   0.296E-03    0.598E-02
RMM:  21    -0.360134065724E+04   -0.18280E-04   -0.14674E-05  4237   0.407E-03    0.636E-02
RMM:  22    -0.360134064998E+04    0.72596E-05   -0.54814E-06  3790   0.250E-03    0.402E-02
RMM:  23    -0.360134065499E+04   -0.50078E-05   -0.14845E-06  3327   0.127E-03    0.139E-02
RMM:  24    -0.360134066261E+04   -0.76213E-05   -0.21760E-06  3282   0.150E-03    0.208E-02
RMM:  25    -0.360134066224E+04    0.37102E-06   -0.10606E-06  3153   0.109E-03
 augmentation electrons   1790.96854817060     
 soft         electrons  0.000000000000000E+000
 total        electrons   1790.96854817060     
 augmentation electrons -6.272686733132472E-002
 soft         electrons  0.000000000000000E+000
 total        electrons -6.272686733132472E-002
 augmentation electrons   1896.18143616752     
 soft         electrons  0.000000000000000E+000
 total        electrons   1896.18143616752     
 augmentation electrons   1841.34666008552     
 soft         electrons  0.000000000000000E+000
 total        electrons   1841.34666008552     
 augmentation electrons   59.0440364104716     
 soft         electrons   1731.92448613347     
 total        electrons   1790.96852254394     
 augmentation electrons   29.5450462072961     
 soft         electrons   1731.92448613347     
 total        electrons   49.1446930134671     
 translations:           0           1           0
 141 F= -.36383836E+04 E0= -.36383585E+04  d E =-.705422E-03  mag=    49.2074
 curvature:  -0.47 expect dE=-0.976E-03 dE for cont linesearch -0.217E-05
 trial: gam= 0.72782 g(F)=  0.210E-02 g(S)=  0.000E+00 ort =-0.200E-03 (trialstep = 0.222E+00)
 search vector abs. value=  0.638E-02
 bond charge predicted
       N       E                     dE             d eps       ncg     rms          rms(c)
RMM:   1    -0.360134196570E+04   -0.13031E-02   -0.19720E-02  5121   0.125E-01    0.102E+00
RMM:   2    -0.360145651762E+04   -0.11455E+00   -0.10196E-01  5521   0.119E-01    0.728E+00
RMM:   3    -0.360130157366E+04    0.15494E+00   -0.88934E-02  5442   0.150E-01    0.193E+00
RMM:   4    -0.360132882214E+04   -0.27248E-01   -0.17297E-02  5433   0.781E-02    0.118E+00
RMM:   5    -0.360133720993E+04   -0.83878E-02   -0.40827E-03  5267   0.575E-02    0.828E-01
RMM:   6    -0.360133910109E+04   -0.18912E-02   -0.96503E-04  5154   0.262E-02    0.799E-01
RMM:   7    -0.360133905972E+04    0.41376E-04   -0.27479E-04  4967   0.146E-02    0.655E-01
RMM:   8    -0.360133938873E+04   -0.32901E-03   -0.23707E-04  5058   0.154E-02    0.434E-01
RMM:   9    -0.360134003647E+04   -0.64774E-03   -0.21598E-04  5121   0.135E-02    0.983E-02
RMM:  10    -0.360134086136E+04   -0.82489E-03   -0.29178E-04  5117   0.157E-02    0.124E-01
RMM:  11    -0.360134095233E+04   -0.90970E-04   -0.95310E-05  4775   0.110E-02    0.877E-02
RMM:  12    -0.360134094848E+04    0.38515E-05   -0.22193E-05  4452   0.536E-03    0.456E-02
RMM:  13    -0.360134095871E+04   -0.10235E-04   -0.66677E-06  3953   0.266E-03    0.675E-02
RMM:  14    -0.360134095658E+04    0.21343E-05   -0.15168E-05  4072   0.391E-03    0.723E-02
RMM:  15    -0.360134094242E+04    0.14154E-04   -0.23789E-06  3506   0.160E-03    0.407E-02
RMM:  16    -0.360134095191E+04   -0.94830E-05   -0.16033E-06  3266   0.107E-03    0.714E-03
RMM:  17    -0.360134096205E+04   -0.10143E-04   -0.33985E-06  3515   0.189E-03    0.169E-02
RMM:  18    -0.360134096162E+04    0.42838E-06   -0.92305E-07  3097   0.101E-03
 augmentation electrons   1790.96664761971     
 soft         electrons  0.000000000000000E+000
 total        electrons   1790.96664761971     
 augmentation electrons -6.270397828781735E-002
 soft         electrons  0.000000000000000E+000
 total        electrons -6.270397828781735E-002
 augmentation electrons   1896.11151422975     
 soft         electrons  0.000000000000000E+000
 total        electrons   1896.11151422975     
 augmentation electrons   1841.27673814775     
 soft         electrons  0.000000000000000E+000
 total        electrons   1841.27673814775     
 augmentation electrons   59.0422183909296     
 soft         electrons   1731.92440357630     
 total        electrons   1790.96662196723     
 augmentation electrons   29.5454280113143     
 soft         electrons   1731.92440357630     
 total        electrons   49.1453644571452     
 translations:           0           1           0
 142 F= -.36383839E+04 E0= -.36383587E+04  d E =-.287332E-03  mag=    49.2081
 trial-energy change:   -0.000287  1 .order   -0.000327   -0.000433   -0.000221
 step:   0.4542(harm=  0.4542)  dis= 0.00079  next Energy= -3638.384007 (dE=-0.443E-03)
 bond charge predicted
       N       E                     dE             d eps       ncg     rms          rms(c)
RMM:   1    -0.360134125864E+04   -0.29659E-03   -0.21485E-02  5121   0.130E-01    0.583E-01
RMM:   2    -0.360138904075E+04   -0.47782E-01   -0.32764E-02  5313   0.753E-02    0.509E+00
RMM:   3    -0.360131859539E+04    0.70445E-01   -0.39212E-02  5530   0.147E-01    0.310E+00
RMM:   4    -0.360132225767E+04   -0.36623E-02   -0.15377E-02  5492   0.120E-01    0.130E+00
RMM:   5    -0.360133381639E+04   -0.11559E-01   -0.33894E-03  5199   0.528E-02    0.714E-01
RMM:   6    -0.360133848637E+04   -0.46700E-02   -0.12444E-03  5131   0.339E-02    0.410E-01
RMM:   7    -0.360134019064E+04   -0.17043E-02   -0.59705E-04  5049   0.221E-02    0.247E-01
RMM:   8    -0.360134079710E+04   -0.60646E-03   -0.29710E-04  4961   0.176E-02    0.161E-01
RMM:   9    -0.360134102221E+04   -0.22510E-03   -0.16998E-04  4870   0.139E-02    0.150E-01
RMM:  10    -0.360134101824E+04    0.39664E-05   -0.51076E-05  4684   0.807E-03    0.147E-01
RMM:  11    -0.360134098263E+04    0.35605E-04   -0.17344E-05  4229   0.450E-03    0.898E-02
RMM:  12    -0.360134101454E+04   -0.31906E-04   -0.80842E-06  3978   0.272E-03    0.384E-02
RMM:  13    -0.360134104832E+04   -0.33781E-04   -0.11030E-05  4042   0.330E-03    0.633E-02
RMM:  14    -0.360134104615E+04    0.21677E-05   -0.12489E-05  4085   0.356E-03    0.702E-02
RMM:  15    -0.360134103343E+04    0.12722E-04   -0.34394E-06  3649   0.183E-03    0.195E-02
RMM:  16    -0.360134104900E+04   -0.15568E-04   -0.36375E-06  3545   0.171E-03    0.184E-02
RMM:  17    -0.360134105200E+04   -0.29987E-05   -0.25940E-06  3450   0.167E-03    0.126E-02
RMM:  18    -0.360134105255E+04   -0.54945E-06   -0.48975E-07  2858   0.608E-04
 augmentation electrons   1790.96468081288     
 soft         electrons  0.000000000000000E+000
 total        electrons   1790.96468081288     
 augmentation electrons -6.266463251122481E-002
 soft         electrons  0.000000000000000E+000
 total        electrons -6.266463251122481E-002
 augmentation electrons   1896.05915405679     
 soft         electrons  0.000000000000000E+000
 total        electrons   1896.05915405679     
 augmentation electrons   1841.22437797479     
 soft         electrons  0.000000000000000E+000
 total        electrons   1841.22437797479     
 augmentation electrons   59.0402002036147     
 soft         electrons   1731.92445492848     
 total        electrons   1790.96465513209     
 augmentation electrons   29.5466609973798     
 soft         electrons   1731.92445492848     
 total        electrons   49.1475513886523     
 translations:           0           1           0
 143 F= -.36383839E+04 E0= -.36383588E+04  d E =-.383311E-03  mag=    49.2102
 curvature:  -0.74 expect dE=-0.132E-02 dE for cont linesearch -0.254E-06
 trial: gam= 0.63576 g(F)=  0.178E-02 g(S)=  0.000E+00 ort = 0.467E-04 (trialstep = 0.269E+00)
 search vector abs. value=  0.441E-02
 bond charge predicted
       N       E                     dE             d eps       ncg     rms          rms(c)
RMM:   1    -0.360134724006E+04   -0.61881E-02   -0.21526E-02  5120   0.128E-01    0.232E+00
RMM:   2    -0.360165465138E+04   -0.30741E+00   -0.49551E-01  5720   0.213E-01    0.737E+00
RMM:   3    -0.360139317327E+04    0.26148E+00   -0.28674E-01  5811   0.248E-01    0.500E+00
RMM:   4    -0.360134762862E+04    0.45545E-01   -0.56569E-02  5807   0.188E-01    0.500E+00
RMM:   5    -0.360132679872E+04    0.20830E-01   -0.24340E-02  5568   0.143E-01    0.413E+00
RMM:   6    -0.360131545976E+04    0.11339E-01   -0.18938E-02  5530   0.124E-01    0.235E+00
RMM:   7    -0.360132878331E+04   -0.13324E-01   -0.54201E-03  5384   0.700E-02    0.202E+00
RMM:   8    -0.360133109146E+04   -0.23081E-02   -0.24422E-03  5337   0.447E-02    0.164E+00
RMM:   9    -0.360133257573E+04   -0.14843E-02   -0.14048E-03  5347   0.299E-02    0.920E-01
RMM:  10    -0.360133744457E+04   -0.48688E-02   -0.16445E-03  5439   0.402E-02    0.346E-01
RMM:  11    -0.360134077981E+04   -0.33352E-02   -0.11843E-03  5301   0.321E-02    0.589E-01
RMM:  12    -0.360134056054E+04    0.21928E-03   -0.18485E-04  4927   0.144E-02    0.775E-01
RMM:  13    -0.360134005794E+04    0.50260E-03   -0.15001E-04  4870   0.118E-02    0.969E-01
RMM:  14    -0.360133895396E+04    0.11040E-02   -0.16005E-04  4952   0.104E-02    0.947E-01
RMM:  15    -0.360133821403E+04    0.73993E-03   -0.19147E-04  5181   0.943E-03    0.379E-01
RMM:  16    -0.360134039975E+04   -0.21857E-02   -0.52886E-04  5606   0.200E-02    0.291E-01
RMM:  17    -0.360134090526E+04   -0.50550E-03   -0.12579E-04  5000   0.109E-02    0.299E-01
RMM:  18    -0.360134095424E+04   -0.48983E-04   -0.63578E-06  3951   0.261E-03    0.309E-01
RMM:  19    -0.360134095076E+04    0.34754E-05   -0.29694E-05  4462   0.373E-03    0.199E-01
RMM:  20    -0.360134110358E+04   -0.15282E-03   -0.44684E-05  5015   0.644E-03    0.113E-01
RMM:  21    -0.360134124665E+04   -0.14307E-03   -0.28818E-05  4653   0.499E-03    0.956E-02
RMM:  22    -0.360134129618E+04   -0.49531E-04   -0.12187E-05  4102   0.330E-03    0.107E-01
RMM:  23    -0.360134129809E+04   -0.19048E-05   -0.31753E-05  4324   0.355E-03    0.827E-02
RMM:  24    -0.360134130936E+04   -0.11278E-04   -0.93776E-06  3953   0.234E-03    0.387E-02
RMM:  25    -0.360134133453E+04   -0.25164E-04   -0.91883E-06  4023   0.282E-03    0.250E-02
RMM:  26    -0.360134134017E+04   -0.56476E-05   -0.32737E-06  3584   0.201E-03    0.174E-02
RMM:  27    -0.360134134140E+04   -0.12204E-05   -0.93982E-07  3210   0.108E-03    0.199E-02
RMM:  28    -0.360134134098E+04    0.41604E-06   -0.13623E-06  3254   0.959E-04
 augmentation electrons   1790.96264252431     
 soft         electrons  0.000000000000000E+000
 total        electrons   1790.96264252431     
 augmentation electrons -6.259524257829167E-002
 soft         electrons  0.000000000000000E+000
 total        electrons -6.259524257829167E-002
 augmentation electrons   1896.32091858791     
 soft         electrons  0.000000000000000E+000
 total        electrons   1896.32091858791     
 augmentation electrons   1841.48614250591     
 soft         electrons  0.000000000000000E+000
 total        electrons   1841.48614250591     
 augmentation electrons   59.0382615449728     
 soft         electrons   1731.92435532281     
 total        electrons   1790.96261686778     
 augmentation electrons   29.5454953083102     
 soft         electrons   1731.92435532281     
 total        electrons   49.1451652369553     
 translations:           0           1           0
 144 F= -.36383843E+04 E0= -.36383591E+04  d E =-.339400E-03  mag=    49.2078
 trial-energy change:   -0.000339  1 .order   -0.000341   -0.000485   -0.000196
 step:   0.4505(harm=  0.4505)  dis= 0.00068  next Energy= -3638.384354 (dE=-0.407E-03)
 reached required accuracy - stopping structural energy minimisation
 writing wavefunctions
