 ----------------------------------------------------
    OOO  PPPP  EEEEE N   N M   M PPPP
   O   O P   P E     NN  N MM MM P   P
   O   O PPPP  EEEEE N N N M M M PPPP   -- VERSION
   O   O P     E     N  NN M   M P
    OOO  P     EEEEE N   N M   M P
 ----------------------------------------------------
 running  512 mpi-ranks, with    1 threads/rank
 distrk:  each k-point on  512 cores,    1 groups
 distr:  one band on    4 cores,  128 groups
 vasp.6.3.2 27Jun22 (build Nov 12 2024 19:13:04) complex                        
  
 POSCAR found type information on POSCAR MnBrN C H 
 POSCAR found :  5 types and     636 ions
 scaLAPACK will be used
 LDA part: xc-table for Pade appr. of Perdew
 POSCAR, INCAR and KPOINTS ok, starting setup
 FFT: planning ... GRIDC
 FFT: planning ... GRID_SOFT
 FFT: planning ... GRID
 WAVECAR not read
 entering main loop
       N       E                     dE             d eps       ncg     rms          rms(c)
DAV:   1     0.986465094485E+04    0.98647E+04   -0.80680E+05  5376   0.120E+03
DAV:   2    -0.261705570547E+04   -0.12482E+05   -0.12034E+05  6272   0.260E+02
DAV:   3    -0.388389499320E+04   -0.12668E+04   -0.12521E+04  6400   0.876E+01
DAV:   4    -0.391833513104E+04   -0.34440E+02   -0.34257E+02  6784   0.163E+01
DAV:   5    -0.391926930257E+04   -0.93417E+00   -0.93305E+00  6656   0.259E+00    0.186E+02
DAV:   6    -0.484812535002E+04   -0.92886E+03   -0.57764E+03  6144   0.489E+01    0.482E+02
DAV:   7    -0.426266161704E+04    0.58546E+03   -0.88255E+02  6272   0.235E+01    0.260E+02
DAV:   8    -0.355158825351E+04    0.71107E+03   -0.10358E+03  6400   0.439E+01    0.969E+01
DAV:   9    -0.380205955507E+04   -0.25047E+03   -0.15613E+03  6272   0.164E+01    0.153E+02
DAV:  10    -0.357776946208E+04    0.22429E+03   -0.75566E+02  6144   0.204E+01    0.703E+01
DAV:  11    -0.363194458601E+04   -0.54175E+02   -0.33727E+02  6272   0.687E+00    0.920E+01
DAV:  12    -0.364414478848E+04   -0.12200E+02   -0.48331E+02  6016   0.113E+01    0.859E+01
DAV:  13    -0.360913529019E+04    0.35009E+02   -0.16429E+02  6144   0.957E+00    0.869E+01
DAV:  14    -0.361236341618E+04   -0.32281E+01   -0.28559E+02  6144   0.935E+00    0.855E+01
DAV:  15    -0.360525780184E+04    0.71056E+01   -0.25160E+02  6016   0.537E+00    0.713E+01
DAV:  16    -0.360117347379E+04    0.40843E+01   -0.20097E+02  6016   0.418E+00    0.701E+01
DAV:  17    -0.360390065130E+04   -0.27272E+01   -0.26614E+02  6272   0.380E+00    0.699E+01
DAV:  18    -0.359288496395E+04    0.11016E+02   -0.16545E+02  6144   0.372E+00    0.574E+01
DAV:  19    -0.359117649977E+04    0.17085E+01   -0.40103E+01  6016   0.216E+00    0.557E+01
DAV:  20    -0.358895098662E+04    0.22255E+01   -0.78172E+01  5632   0.219E+00    0.397E+01
DAV:  21    -0.358976773311E+04   -0.81675E+00   -0.38564E+00  5760   0.990E-01    0.386E+01
DAV:  22    -0.358929472722E+04    0.47301E+00   -0.36854E+00  5888   0.563E-01    0.370E+01
DAV:  23    -0.359103023782E+04   -0.17355E+01   -0.13635E+01  5888   0.697E-01    0.332E+01
DAV:  24    -0.359097118166E+04    0.59056E-01   -0.58269E-01  5632   0.592E-01    0.356E+01
DAV:  25    -0.359096732934E+04    0.38523E-02   -0.81178E+00  6016   0.478E-01    0.316E+01
DAV:  26    -0.359154821822E+04   -0.58089E+00   -0.13003E-01  5760   0.359E-01    0.309E+01
DAV:  27    -0.359187075221E+04   -0.32253E+00   -0.64825E-01  6272   0.281E-01    0.319E+01
DAV:  28    -0.359211268761E+04   -0.24194E+00   -0.19828E-01  5760   0.465E-01    0.313E+01
DAV:  29    -0.359198872207E+04    0.12397E+00   -0.15781E-01  5888   0.248E-01    0.318E+01
DAV:  30    -0.359178794370E+04    0.20078E+00   -0.16751E+00  6016   0.354E-01    0.302E+01
DAV:  31    -0.359275307078E+04   -0.96513E+00   -0.23415E+01  6272   0.137E+00    0.411E+01
DAV:  32    -0.359336689804E+04   -0.61383E+00   -0.69143E+00  6144   0.956E-01    0.340E+01
DAV:  33    -0.359308695066E+04    0.27995E+00   -0.25692E-01  5504   0.483E-01    0.349E+01
DAV:  34    -0.359314735431E+04   -0.60404E-01   -0.21071E+00  6144   0.215E-01    0.344E+01
DAV:  35    -0.359354618082E+04   -0.39883E+00   -0.19656E+00  6016   0.382E-01    0.340E+01
DAV:  36    -0.359384304506E+04   -0.29686E+00   -0.25814E-01  6016   0.354E-01    0.331E+01
DAV:  37    -0.359376923951E+04    0.73806E-01   -0.52423E+00  6144   0.730E-01    0.297E+01
DAV:  38    -0.359390209964E+04   -0.13286E+00   -0.13999E-01  5632   0.389E-01    0.297E+01
DAV:  39    -0.359388176935E+04    0.20330E-01   -0.96829E-03  5888   0.101E-01    0.297E+01
DAV:  40    -0.359379341378E+04    0.88356E-01   -0.38950E-02  5760   0.123E-01    0.300E+01
DAV:  41    -0.359414662358E+04   -0.35321E+00   -0.32000E+00  6016   0.474E-01    0.288E+01
DAV:  42    -0.359392581830E+04    0.22081E+00   -0.33792E-01  5632   0.525E-01    0.281E+01
DAV:  43    -0.359580843611E+04   -0.18826E+01   -0.42620E+01  6400   0.188E+00    0.362E+01
DAV:  44    -0.359429052495E+04    0.15179E+01   -0.37348E+00  5760   0.115E+00    0.281E+01
DAV:  45    -0.359379903821E+04    0.49149E+00   -0.84790E+00  6528   0.760E-01    0.202E+01
DAV:  46    -0.359493062509E+04   -0.11316E+01   -0.37417E-01  5632   0.519E-01    0.202E+01
DAV:  47    -0.359503472071E+04   -0.10410E+00   -0.13339E+00  6656   0.590E-01    0.187E+01
DAV:  48    -0.359589510436E+04   -0.86038E+00   -0.56882E+00  6400   0.108E+00    0.177E+01
DAV:  49    -0.359657320839E+04   -0.67810E+00   -0.28112E+00  5888   0.559E-01    0.148E+01
DAV:  50    -0.359676258508E+04   -0.18938E+00   -0.47779E-01  6144   0.559E-01    0.147E+01
DAV:  51    -0.359633244952E+04    0.43014E+00   -0.15349E+00  6272   0.116E+00    0.146E+01
DAV:  52    -0.359593614643E+04    0.39630E+00   -0.42104E+00  6656   0.891E-01    0.174E+01
DAV:  53    -0.359593607372E+04    0.72702E-04   -0.36080E-01  6016   0.410E-01    0.176E+01
DAV:  54    -0.359578304028E+04    0.15303E+00   -0.15812E-01  6784   0.181E-01    0.181E+01
DAV:  55    -0.359577698716E+04    0.60531E-02   -0.80358E-03  5888   0.773E-02    0.181E+01
DAV:  56    -0.359701171758E+04   -0.12347E+01   -0.49446E+00  6144   0.165E+00    0.189E+01
DAV:  57    -0.359746249893E+04   -0.45078E+00   -0.11845E+00  6144   0.991E-01    0.222E+01
DAV:  58    -0.359775170843E+04   -0.28921E+00   -0.26848E-01  6016   0.380E-01    0.220E+01
DAV:  59    -0.359765263557E+04    0.99073E-01   -0.13482E-01  5632   0.157E-01    0.216E+01
DAV:  60    -0.359784260212E+04   -0.18997E+00   -0.35022E-02  6144   0.154E-01    0.212E+01
DAV:  61    -0.359882250604E+04   -0.97990E+00   -0.76964E-01  5760   0.104E+00    0.217E+01
DAV:  62    -0.359899371007E+04   -0.17120E+00   -0.43470E-01  6144   0.476E-01    0.219E+01
DAV:  63    -0.359895197517E+04    0.41735E-01   -0.21968E-01  6400   0.321E-01    0.220E+01
DAV:  64    -0.359881666985E+04    0.13531E+00   -0.22799E-01  6656   0.242E-01    0.242E+01
DAV:  65    -0.359879828177E+04    0.18388E-01   -0.24571E-02  5632   0.170E-01    0.243E+01
DAV:  66    -0.359818695388E+04    0.61133E+00   -0.22721E+00  6272   0.770E-01    0.187E+01
DAV:  67    -0.359841078680E+04   -0.22383E+00   -0.44062E-01  6144   0.313E-01    0.209E+01
DAV:  68    -0.359844395884E+04   -0.33172E-01   -0.20526E+00  5888   0.394E-01    0.191E+01
DAV:  69    -0.359842407712E+04    0.19882E-01   -0.16699E-01  5760   0.289E-01    0.189E+01
DAV:  70    -0.359839376947E+04    0.30308E-01   -0.12227E-01  6144   0.203E-01    0.187E+01
DAV:  71    -0.359798858064E+04    0.40519E+00   -0.39288E+00  6656   0.115E+00    0.211E+01
DAV:  72    -0.359813474527E+04   -0.14616E+00   -0.82202E-01  6016   0.587E-01    0.240E+01
DAV:  73    -0.359810363892E+04    0.31106E-01   -0.58936E-02  5632   0.198E-01    0.246E+01
DAV:  74    -0.359776475402E+04    0.33888E+00   -0.11270E-01  6272   0.286E-01    0.212E+01
DAV:  75    -0.359762437007E+04    0.14038E+00   -0.10042E+00  6272   0.418E-01    0.186E+01
DAV:  76    -0.359785267621E+04   -0.22831E+00   -0.86129E+00  6272   0.145E+00    0.216E+01
DAV:  77    -0.359798914920E+04   -0.13647E+00   -0.16761E+00  6144   0.719E-01    0.209E+01
DAV:  78    -0.359809051741E+04   -0.10137E+00   -0.22795E-01  6016   0.292E-01    0.203E+01
DAV:  79    -0.359813860617E+04   -0.48089E-01   -0.42780E-01  6784   0.227E-01    0.185E+01
DAV:  80    -0.359812846707E+04    0.10139E-01   -0.41652E-01  6400   0.236E-01    0.175E+01
DAV:  81    -0.359780657290E+04    0.32189E+00   -0.25716E+00  6144   0.993E-01    0.156E+01
DAV:  82    -0.359836265009E+04   -0.55608E+00   -0.22071E+00  6528   0.638E-01    0.132E+01
DAV:  83    -0.359860143649E+04   -0.23879E+00   -0.30332E+00  6528   0.772E-01    0.138E+01
DAV:  84    -0.359877590678E+04   -0.17447E+00   -0.12658E+00  6784   0.418E-01    0.157E+01
DAV:  85    -0.359882970955E+04   -0.53803E-01   -0.50807E-02  5632   0.243E-01    0.158E+01
DAV:  86    -0.359921937319E+04   -0.38966E+00   -0.17812E+00  6400   0.843E-01    0.172E+01
DAV:  87    -0.359956186715E+04   -0.34249E+00   -0.31826E-01  6144   0.357E-01    0.181E+01
DAV:  88    -0.359974927677E+04   -0.18741E+00   -0.43947E-01  5760   0.301E-01    0.209E+01
DAV:  89    -0.359972646742E+04    0.22809E-01   -0.35114E-02  5632   0.187E-01    0.210E+01
DAV:  90    -0.359974718031E+04   -0.20713E-01   -0.48615E-02  6016   0.636E-02    0.214E+01
DAV:  91    -0.359971734720E+04    0.29833E-01   -0.11719E+01  6144   0.999E-01    0.170E+01
DAV:  92    -0.359983262640E+04   -0.11528E+00   -0.62032E-01  5888   0.700E-01    0.186E+01
DAV:  93    -0.359991015187E+04   -0.77525E-01   -0.31047E-01  6144   0.342E-01    0.242E+01
DAV:  94    -0.359985120265E+04    0.58949E-01   -0.54498E-02  5632   0.224E-01    0.243E+01
DAV:  95    -0.359976710193E+04    0.84101E-01   -0.31565E-02  6016   0.777E-02    0.234E+01
DAV:  96    -0.360071209318E+04   -0.94499E+00   -0.93434E+00  6144   0.137E+00    0.245E+01
DAV:  97    -0.360083425992E+04   -0.12217E+00   -0.34378E-01  6016   0.483E-01    0.237E+01
DAV:  98    -0.360054663367E+04    0.28763E+00   -0.40580E-01  7040   0.514E-01    0.226E+01
DAV:  99    -0.360005993255E+04    0.48670E+00   -0.11097E+00  6656   0.993E-01    0.176E+01
DAV: 100    -0.360032635671E+04   -0.26642E+00   -0.36450E-01  5888   0.425E-01    0.174E+01
DAV: 101    -0.360101115815E+04   -0.68480E+00   -0.13128E+00  6016   0.836E-01    0.170E+01
DAV: 102    -0.360122915878E+04   -0.21800E+00   -0.70028E-01  6400   0.475E-01    0.207E+01
DAV: 103    -0.360117735195E+04    0.51807E-01   -0.56762E-02  5632   0.251E-01    0.201E+01
DAV: 104    -0.360130019177E+04   -0.12284E+00   -0.24024E-01  6400   0.236E-01    0.227E+01
DAV: 105    -0.360124996334E+04    0.50228E-01   -0.71286E-01  6016   0.197E-01    0.227E+01
DAV: 106    -0.360113333856E+04    0.11662E+00   -0.38360E-01  5888   0.489E-01    0.231E+01
DAV: 107    -0.360118407327E+04   -0.50735E-01   -0.18316E-01  6784   0.393E-01    0.214E+01
DAV: 108    -0.360123480421E+04   -0.50731E-01   -0.36260E-02  5632   0.175E-01    0.217E+01
DAV: 109    -0.360136197326E+04   -0.12717E+00   -0.22792E-01  6656   0.140E-01    0.253E+01
DAV: 110    -0.360129945637E+04    0.62517E-01   -0.39648E-02  5632   0.180E-01    0.252E+01
DAV: 111    -0.360166275724E+04   -0.36330E+00   -0.19076E+00  6528   0.904E-01    0.232E+01
DAV: 112    -0.360109370314E+04    0.56905E+00   -0.80351E-01  6144   0.841E-01    0.224E+01
DAV: 113    -0.360022180312E+04    0.87190E+00   -0.11341E+00  6912   0.903E-01    0.177E+01
DAV: 114    -0.360034113841E+04   -0.11934E+00   -0.51633E+00  6400   0.892E-01    0.235E+01
DAV: 115    -0.360042192263E+04   -0.80784E-01   -0.18189E-01  5760   0.415E-01    0.236E+01
DAV: 116    -0.360257634633E+04   -0.21544E+01   -0.26890E+01  6272   0.166E+00    0.384E+01
DAV: 117    -0.360118067442E+04    0.13957E+01   -0.64979E+00  6144   0.110E+00    0.239E+01
DAV: 118    -0.360158603511E+04   -0.40536E+00   -0.67912E+00  5888   0.999E-01    0.273E+01
DAV: 119    -0.360145045492E+04    0.13558E+00   -0.11687E-01  5632   0.333E-01    0.276E+01
DAV: 120    -0.360145439925E+04   -0.39443E-02   -0.34384E-02  6656   0.128E-01    0.298E+01
DAV: 121    -0.360065963214E+04    0.79477E+00   -0.15683E+01  6400   0.169E+00    0.326E+01
DAV: 122    -0.359897368393E+04    0.16859E+01   -0.87022E+00  5760   0.125E+00    0.141E+01
DAV: 123    -0.359938992403E+04   -0.41624E+00   -0.61901E+00  6272   0.110E+00    0.179E+01
DAV: 124    -0.359927698632E+04    0.11294E+00   -0.14909E-01  5632   0.374E-01    0.183E+01
DAV: 125    -0.359923368325E+04    0.43303E-01   -0.14236E-02  6144   0.105E-01    0.183E+01
DAV: 126    -0.359944010835E+04   -0.20643E+00   -0.41389E+00  6272   0.695E-01    0.159E+01
DAV: 127    -0.360023884450E+04   -0.79874E+00   -0.13763E+00  5760   0.528E-01    0.173E+01
DAV: 128    -0.360072303591E+04   -0.48419E+00   -0.96995E-01  5760   0.602E-01    0.156E+01
DAV: 129    -0.360153744364E+04   -0.81441E+00   -0.17857E+00  6016   0.594E-01    0.229E+01
DAV: 130    -0.360150297091E+04    0.34473E-01   -0.21997E-01  5888   0.332E-01    0.239E+01
DAV: 131    -0.360111561460E+04    0.38736E+00   -0.16767E-01  5888   0.227E-01    0.205E+01
DAV: 132    -0.360089223697E+04    0.22338E+00   -0.50082E-01  6144   0.253E-01    0.180E+01
DAV: 133    -0.360085330498E+04    0.38932E-01   -0.56082E-02  5632   0.201E-01    0.185E+01
DAV: 134    -0.360113988192E+04   -0.28658E+00   -0.75354E-01  6144   0.327E-01    0.207E+01
DAV: 135    -0.360120351366E+04   -0.63632E-01   -0.13143E-01  6400   0.194E-01    0.213E+01
DAV: 136    -0.360158633936E+04   -0.38283E+00   -0.41034E+00  6272   0.101E+00    0.207E+01
DAV: 137    -0.360180664855E+04   -0.22031E+00   -0.14420E+00  6272   0.567E-01    0.225E+01
DAV: 138    -0.360186875725E+04   -0.62109E-01   -0.46741E-01  6272   0.432E-01    0.231E+01
DAV: 139    -0.360203951231E+04   -0.17076E+00   -0.21771E-01  6784   0.305E-01    0.253E+01
DAV: 140    -0.360198644778E+04    0.53065E-01   -0.63642E-02  5888   0.215E-01    0.285E+01
DAV: 141    -0.360163104276E+04    0.35541E+00   -0.26471E-01  6144   0.343E-01    0.240E+01
DAV: 142    -0.360169893826E+04   -0.67896E-01   -0.32347E-02  5760   0.150E-01    0.238E+01
DAV: 143    -0.360169492577E+04    0.40125E-02   -0.61096E-02  6272   0.113E-01    0.233E+01
DAV: 144    -0.360199727982E+04   -0.30235E+00   -0.82929E-02  5760   0.148E-01    0.257E+01
DAV: 145    -0.360204873167E+04   -0.51452E-01   -0.37138E-02  5888   0.191E-01    0.252E+01
DAV: 146    -0.360255409767E+04   -0.50537E+00   -0.20416E+00  6016   0.739E-01    0.203E+01
DAV: 147    -0.360229970903E+04    0.25439E+00   -0.11392E+00  6144   0.695E-01    0.188E+01
DAV: 148    -0.360231706583E+04   -0.17357E-01   -0.20160E-01  6400   0.273E-01    0.187E+01
DAV: 149    -0.360232044482E+04   -0.33790E-02   -0.88574E-02  6528   0.154E-01    0.185E+01
DAV: 150    -0.360230688955E+04    0.13555E-01   -0.12855E-02  6272   0.735E-02    0.184E+01
DAV: 151    -0.360157368331E+04    0.73321E+00   -0.52727E+00  6272   0.684E-01    0.154E+01
DAV: 152    -0.360161521156E+04   -0.41528E-01   -0.10471E-01  5632   0.289E-01    0.146E+01
DAV: 153    -0.360193326500E+04   -0.31805E+00   -0.19914E-01  6400   0.354E-01    0.134E+01
DAV: 154    -0.360210077668E+04   -0.16751E+00   -0.99766E-02  5760   0.304E-01    0.130E+01
DAV: 155    -0.360325738993E+04   -0.11566E+01   -0.60971E+00  6400   0.787E-01    0.235E+01
DAV: 156    -0.360407167116E+04   -0.81428E+00   -0.14067E+01  6400   0.141E+00    0.285E+01
DAV: 157    -0.360375495504E+04    0.31672E+00   -0.50893E-01  5760   0.571E-01    0.235E+01
DAV: 158    -0.360381280073E+04   -0.57846E-01   -0.92058E-02  6144   0.290E-01    0.219E+01
DAV: 159    -0.360375395301E+04    0.58848E-01   -0.91777E-01  6784   0.439E-01    0.205E+01
DAV: 160    -0.360343979805E+04    0.31415E+00   -0.16866E+00  6528   0.467E-01    0.149E+01
DAV: 161    -0.360318039464E+04    0.25940E+00   -0.20659E+00  6272   0.105E+00    0.157E+01
DAV: 162    -0.360362567356E+04   -0.44528E+00   -0.25371E+00  6016   0.792E-01    0.185E+01
DAV: 163    -0.360353766258E+04    0.88011E-01   -0.80051E-02  5632   0.253E-01    0.187E+01
DAV: 164    -0.360354681528E+04   -0.91527E-02   -0.56707E-02  6016   0.100E-01    0.187E+01
DAV: 165    -0.360353350102E+04    0.13314E-01   -0.23182E-03  5760   0.383E-02    0.187E+01
DAV: 166    -0.360442735781E+04   -0.89386E+00   -0.56890E+00  6400   0.129E+00    0.266E+01
DAV: 167    -0.360429901552E+04    0.12834E+00   -0.14614E-01  5632   0.325E-01    0.265E+01
DAV: 168    -0.360430813635E+04   -0.91208E-02   -0.11358E-02  6400   0.897E-02    0.264E+01
DAV: 169    -0.360430308187E+04    0.50545E-02   -0.63820E-04  6144   0.221E-02    0.264E+01
DAV: 170    -0.360430894507E+04   -0.58632E-02   -0.21525E-04  6144   0.128E-02    0.264E+01
DAV: 171    -0.360348670652E+04    0.82224E+00   -0.24743E+00  6144   0.592E-01    0.189E+01
DAV: 172    -0.360346464632E+04    0.22060E-01   -0.17623E+00  6144   0.545E-01    0.167E+01
DAV: 173    -0.360322804335E+04    0.23660E+00   -0.80767E-01  6272   0.611E-01    0.162E+01
DAV: 174    -0.360312605883E+04    0.10198E+00   -0.26707E-01  6912   0.301E-01    0.145E+01
DAV: 175    -0.360306448181E+04    0.61577E-01   -0.13881E-01  5888   0.215E-01    0.144E+01
DAV: 176    -0.360294505217E+04    0.11943E+00   -0.95533E-01  6016   0.643E-01    0.111E+01
DAV: 177    -0.360295871739E+04   -0.13665E-01   -0.10823E+00  6016   0.537E-01    0.144E+01
DAV: 178    -0.360281087689E+04    0.14784E+00   -0.35511E-01  5760   0.338E-01    0.103E+01
DAV: 179    -0.360296329410E+04   -0.15242E+00   -0.24349E-01  6272   0.249E-01    0.127E+01
DAV: 180    -0.360276412592E+04    0.19917E+00   -0.38487E-01  5888   0.233E-01    0.913E+00
DAV: 181    -0.360283588024E+04   -0.71754E-01   -0.13089E-01  5888   0.190E-01    0.908E+00
DAV: 182    -0.360283943925E+04   -0.35590E-02   -0.21534E-01  6400   0.138E-01    0.960E+00
DAV: 183    -0.360281200191E+04    0.27437E-01   -0.35075E-01  6272   0.159E-01    0.881E+00
DAV: 184    -0.360282724130E+04   -0.15239E-01   -0.10634E-02  5632   0.909E-02    0.890E+00
DAV: 185    -0.360274860422E+04    0.78637E-01   -0.38978E-02  5632   0.102E-01    0.864E+00
DAV: 186    -0.360280962190E+04   -0.61018E-01   -0.50515E-01  5888   0.244E-01    0.124E+01
DAV: 187    -0.360281508850E+04   -0.54666E-02   -0.82755E-02  5888   0.202E-01    0.135E+01
DAV: 188    -0.360281302988E+04    0.20586E-02   -0.24921E-02  6400   0.108E-01    0.136E+01
DAV: 189    -0.360282104514E+04   -0.80153E-02   -0.21859E-02  6528   0.817E-02    0.134E+01
DAV: 190    -0.360283959008E+04   -0.18545E-01   -0.40269E-02  6656   0.103E-01    0.130E+01
DAV: 191    -0.360233052039E+04    0.50907E+00   -0.18393E+00  5760   0.597E-01    0.970E+00
DAV: 192    -0.360229174906E+04    0.38771E-01   -0.22021E-01  5888   0.340E-01    0.102E+01
DAV: 193    -0.360189741194E+04    0.39434E+00   -0.23180E-01  6272   0.326E-01    0.926E+00
DAV: 194    -0.360182987830E+04    0.67534E-01   -0.13439E-01  6016   0.189E-01    0.920E+00
DAV: 195    -0.360180652707E+04    0.23351E-01   -0.29665E-02  6528   0.793E-02    0.919E+00
DAV: 196    -0.360216064236E+04   -0.35412E+00   -0.18426E+01  6144   0.178E+00    0.846E+00
DAV: 197    -0.360300328964E+04   -0.84265E+00   -0.67657E-01  5760   0.705E-01    0.804E+00
DAV: 198    -0.360335407313E+04   -0.35078E+00   -0.44225E-01  6656   0.580E-01    0.153E+01
DAV: 199    -0.360324195936E+04    0.11211E+00   -0.19261E-01  6016   0.278E-01    0.156E+01
DAV: 200    -0.360322072085E+04    0.21239E-01   -0.55045E-03  6144   0.636E-02    0.156E+01
DAV: 201    -0.360352299710E+04   -0.30228E+00   -0.18959E+00  6272   0.107E+00    0.788E+00
DAV: 202    -0.360406126319E+04   -0.53827E+00   -0.37504E+00  6784   0.112E+00    0.230E+01
DAV: 203    -0.360338122313E+04    0.68004E+00   -0.72661E-01  5888   0.729E-01    0.963E+00
DAV: 204    -0.360351898264E+04   -0.13776E+00   -0.80879E-02  5888   0.219E-01    0.131E+01
DAV: 205    -0.360357780664E+04   -0.58824E-01   -0.16829E+00  6016   0.532E-01    0.133E+01
DAV: 206    -0.360312643242E+04    0.45137E+00   -0.41375E+00  6400   0.845E-01    0.953E+00
DAV: 207    -0.360329260645E+04   -0.16617E+00   -0.49811E-01  6144   0.427E-01    0.716E+00
DAV: 208    -0.360334979758E+04   -0.57191E-01   -0.53651E-01  6272   0.311E-01    0.686E+00
DAV: 209    -0.360340671631E+04   -0.56919E-01   -0.33875E-01  6272   0.224E-01    0.674E+00
DAV: 210    -0.360346405289E+04   -0.57337E-01   -0.29495E-01  6528   0.290E-01    0.659E+00
DAV: 211    -0.360360020595E+04   -0.13615E+00   -0.37642E-01  6784   0.405E-01    0.733E+00
DAV: 212    -0.360368071361E+04   -0.80508E-01   -0.62801E-02  5632   0.214E-01    0.124E+01
DAV: 213    -0.360352111936E+04    0.15959E+00   -0.10830E-01  5632   0.206E-01    0.102E+01
DAV: 214    -0.360354472532E+04   -0.23606E-01   -0.31021E-03  5632   0.529E-02    0.102E+01
DAV: 215    -0.360355152938E+04   -0.68041E-02   -0.11659E-02  6656   0.574E-02    0.978E+00
DAV: 216    -0.360422126692E+04   -0.66974E+00   -0.38180E+00  6272   0.847E-01    0.189E+01
DAV: 217    -0.360409522088E+04    0.12605E+00   -0.94809E-02  5632   0.307E-01    0.187E+01
DAV: 218    -0.360419773574E+04   -0.10251E+00   -0.68390E-03  6528   0.122E-01    0.192E+01
DAV: 219    -0.360419362958E+04    0.41062E-02   -0.48583E-03  6528   0.585E-02    0.196E+01
DAV: 220    -0.360390699345E+04    0.28664E+00   -0.67717E-02  6528   0.209E-01    0.185E+01
DAV: 221    -0.360404563901E+04   -0.13865E+00   -0.18457E-01  6144   0.157E-01    0.188E+01
DAV: 222    -0.360397223149E+04    0.73408E-01   -0.39925E-02  6016   0.106E-01    0.187E+01
DAV: 223    -0.360404866834E+04   -0.76437E-01   -0.13875E-01  6400   0.196E-01    0.184E+01
DAV: 224    -0.360415798584E+04   -0.10932E+00   -0.34970E-02  6016   0.954E-02    0.185E+01
DAV: 225    -0.360409680108E+04    0.61185E-01   -0.10462E-01  6784   0.140E-01    0.182E+01
DAV: 226    -0.360372757752E+04    0.36922E+00   -0.53074E-01  6400   0.560E-01    0.146E+01
DAV: 227    -0.360370746794E+04    0.20110E-01   -0.13536E-01  5888   0.447E-01    0.140E+01
DAV: 228    -0.360363092148E+04    0.76546E-01   -0.24069E-01  6784   0.419E-01    0.124E+01
DAV: 229    -0.360385680436E+04   -0.22588E+00   -0.87629E-01  6912   0.398E-01    0.135E+01
DAV: 230    -0.360383102140E+04    0.25783E-01   -0.46804E-02  5632   0.175E-01    0.137E+01
DAV: 231    -0.360395239205E+04   -0.12137E+00   -0.20877E-01  6784   0.332E-01    0.141E+01
DAV: 232    -0.360381946504E+04    0.13293E+00   -0.83677E-02  6144   0.182E-01    0.139E+01
DAV: 233    -0.360355434245E+04    0.26512E+00   -0.23555E+00  6912   0.440E-01    0.622E+00
DAV: 234    -0.360374207984E+04   -0.18774E+00   -0.36921E-01  6144   0.478E-01    0.832E+00
DAV: 235    -0.360361319357E+04    0.12889E+00   -0.40530E-01  6400   0.342E-01    0.586E+00
DAV: 236    -0.360515631271E+04   -0.15431E+01   -0.29320E+01  6528   0.222E+00    0.233E+01
DAV: 237    -0.360447501668E+04    0.68130E+00   -0.32706E+00  6144   0.123E+00    0.198E+01
DAV: 238    -0.360438756062E+04    0.87456E-01   -0.13127E-01  5760   0.293E-01    0.196E+01
DAV: 239    -0.360425461858E+04    0.13294E+00   -0.20166E-02  6656   0.109E-01    0.191E+01
DAV: 240    -0.360402696900E+04    0.22765E+00   -0.14145E+00  6784   0.511E-01    0.162E+01
DAV: 241    -0.360321848851E+04    0.80848E+00   -0.54000E+00  6528   0.107E+00    0.122E+01
DAV: 242    -0.360353506185E+04   -0.31657E+00   -0.33960E-01  6144   0.398E-01    0.126E+01
DAV: 243    -0.360359503277E+04   -0.59971E-01   -0.76066E-02  7040   0.198E-01    0.129E+01
DAV: 244    -0.360359437402E+04    0.65875E-03   -0.73163E-02  6912   0.173E-01    0.132E+01
DAV: 245    -0.360335626461E+04    0.23811E+00   -0.46681E-01  6144   0.349E-01    0.137E+01
DAV: 246    -0.360385454772E+04   -0.49828E+00   -0.52207E-01  6272   0.573E-01    0.146E+01
DAV: 247    -0.360350189771E+04    0.35265E+00   -0.31964E-01  6016   0.422E-01    0.145E+01
DAV: 248    -0.360344877772E+04    0.53120E-01   -0.18636E-01  6528   0.275E-01    0.141E+01
DAV: 249    -0.360343690164E+04    0.11876E-01   -0.12403E-01  6272   0.190E-01    0.138E+01
DAV: 250    -0.360342581789E+04    0.11084E-01   -0.13730E-01  6784   0.163E-01    0.136E+01
DAV: 251    -0.360321943929E+04    0.20638E+00   -0.20045E+00  6912   0.724E-01    0.101E+01
DAV: 252    -0.360334123349E+04   -0.12179E+00   -0.50678E-01  6272   0.513E-01    0.667E+00
DAV: 253    -0.360347280958E+04   -0.13158E+00   -0.11266E-01  6144   0.286E-01    0.694E+00
DAV: 254    -0.360351390910E+04   -0.41100E-01   -0.40094E-02  6784   0.112E-01    0.788E+00
DAV: 255    -0.360348978204E+04    0.24127E-01   -0.74178E-03  5632   0.745E-02    0.786E+00
DAV: 256    -0.360397257766E+04   -0.48280E+00   -0.22369E+00  6912   0.602E-01    0.165E+01
DAV: 257    -0.360386745567E+04    0.10512E+00   -0.49456E-02  5632   0.206E-01    0.165E+01
DAV: 258    -0.360381760777E+04    0.49848E-01   -0.23942E-03  6272   0.480E-02    0.164E+01
DAV: 259    -0.360371072384E+04    0.10688E+00   -0.52412E-02  6912   0.176E-01    0.163E+01
DAV: 260    -0.360347790148E+04    0.23282E+00   -0.23242E-01  6656   0.345E-01    0.133E+01
DAV: 261    -0.360334580542E+04    0.13210E+00   -0.80796E-01  6400   0.375E-01    0.664E+00
DAV: 262    -0.360342212523E+04   -0.76320E-01   -0.30171E-01  6400   0.274E-01    0.555E+00
DAV: 263    -0.360348572109E+04   -0.63596E-01   -0.33477E-02  5888   0.131E-01    0.553E+00
DAV: 264    -0.360349909402E+04   -0.13373E-01   -0.11258E-01  6912   0.179E-01    0.584E+00
DAV: 265    -0.360351114727E+04   -0.12053E-01   -0.41674E-01  6272   0.268E-01    0.570E+00
DAV: 266    -0.360361508613E+04   -0.10394E+00   -0.12369E+00  6144   0.525E-01    0.149E+01
DAV: 267    -0.360334474145E+04    0.27034E+00   -0.11161E+00  6144   0.350E-01    0.576E+00
DAV: 268    -0.360346216282E+04   -0.11742E+00   -0.30982E-01  6144   0.195E-01    0.555E+00
DAV: 269    -0.360353632448E+04   -0.74162E-01   -0.38002E-01  6272   0.216E-01    0.673E+00
DAV: 270    -0.360355776431E+04   -0.21440E-01   -0.20538E-01  6144   0.137E-01    0.782E+00
DAV: 271    -0.360354764598E+04    0.10118E-01   -0.55876E-02  6016   0.133E-01    0.726E+00
DAV: 272    -0.360355642160E+04   -0.87756E-02   -0.29395E-02  6144   0.581E-02    0.700E+00
DAV: 273    -0.360359564105E+04   -0.39219E-01   -0.57758E-02  6656   0.889E-02    0.102E+01
DAV: 274    -0.360353135929E+04    0.64282E-01   -0.33538E-02  5888   0.107E-01    0.888E+00
DAV: 275    -0.360352187710E+04    0.94822E-02   -0.17224E-01  6400   0.149E-01    0.847E+00
DAV: 276    -0.360354163031E+04   -0.19753E-01   -0.69690E-02  6656   0.124E-01    0.959E+00
DAV: 277    -0.360353130661E+04    0.10324E-01   -0.31593E-03  5632   0.530E-02    0.966E+00
DAV: 278    -0.360351892170E+04    0.12385E-01   -0.11498E-02  6016   0.350E-02    0.912E+00
DAV: 279    -0.360353766549E+04   -0.18744E-01   -0.28974E-02  6016   0.717E-02    0.947E+00
DAV: 280    -0.360355801759E+04   -0.20352E-01   -0.98918E-02  6912   0.111E-01    0.108E+01
DAV: 281    -0.360348685505E+04    0.71163E-01   -0.87456E+00  6656   0.108E+00    0.163E+01
DAV: 282    -0.360373546110E+04   -0.24861E+00   -0.21674E-01  5632   0.340E-01    0.163E+01
DAV: 283    -0.360385636671E+04   -0.12091E+00   -0.54728E-01  6400   0.248E-01    0.163E+01
DAV: 284    -0.360395285466E+04   -0.96488E-01   -0.42604E-01  6912   0.195E-01    0.164E+01
DAV: 285    -0.360407400285E+04   -0.12115E+00   -0.47788E-01  7168   0.228E-01    0.165E+01
DAV: 286    -0.360437136874E+04   -0.29737E+00   -0.14821E+00  6784   0.415E-01    0.219E+01
DAV: 287    -0.360386207125E+04    0.50930E+00   -0.10425E+00  6016   0.436E-01    0.199E+01
DAV: 288    -0.360393441052E+04   -0.72339E-01   -0.28214E-02  5632   0.120E-01    0.197E+01
DAV: 289    -0.360394342134E+04   -0.90108E-02   -0.74952E-03  6144   0.413E-02    0.200E+01
DAV: 290    -0.360397580452E+04   -0.32383E-01   -0.13656E-02  6528   0.544E-02    0.202E+01
DAV: 291    -0.360435841601E+04   -0.38261E+00   -0.27530E+00  6400   0.527E-01    0.218E+01
DAV: 292    -0.360438715473E+04   -0.28739E-01   -0.82527E-02  5632   0.214E-01    0.218E+01
DAV: 293    -0.360436862471E+04    0.18530E-01   -0.39418E-03  6016   0.515E-02    0.218E+01
DAV: 294    -0.360439250171E+04   -0.23877E-01   -0.96842E-03  6656   0.439E-02    0.218E+01
DAV: 295    -0.360436391641E+04    0.28585E-01   -0.19410E-01  6784   0.109E-01    0.217E+01
DAV: 296    -0.360431048778E+04    0.53429E-01   -0.56790E-01  6400   0.338E-01    0.170E+01
DAV: 297    -0.360438943459E+04   -0.78947E-01   -0.36024E-01  6272   0.297E-01    0.171E+01
DAV: 298    -0.360439612087E+04   -0.66863E-02   -0.53482E-02  6400   0.120E-01    0.172E+01
DAV: 299    -0.360438000464E+04    0.16116E-01   -0.83625E-02  6656   0.145E-01    0.174E+01
DAV: 300    -0.360439310096E+04   -0.13096E-01   -0.67365E-03  5632   0.637E-02    0.173E+01
DAV: 301    -0.360439336042E+04   -0.25946E-03   -0.12000E+00  6528   0.542E-01    0.164E+01
DAV: 302    -0.360429939798E+04    0.93962E-01   -0.18588E-01  6272   0.279E-01    0.162E+01
DAV: 303    -0.360428108325E+04    0.18315E-01   -0.47460E-02  6400   0.108E-01    0.161E+01
DAV: 304    -0.360427956593E+04    0.15173E-02   -0.26451E-03  5888   0.349E-02    0.161E+01
DAV: 305    -0.360425765544E+04    0.21910E-01   -0.19146E-02  6912   0.465E-02    0.161E+01
DAV: 306    -0.360419030154E+04    0.67354E-01   -0.39428E-01  6912   0.260E-01    0.158E+01
DAV: 307    -0.360409514852E+04    0.95153E-01   -0.49309E-02  6528   0.147E-01    0.157E+01
DAV: 308    -0.360404687207E+04    0.48276E-01   -0.13093E-02  6400   0.743E-02    0.155E+01
DAV: 309    -0.360396757141E+04    0.79301E-01   -0.16867E-01  6656   0.186E-01    0.151E+01
DAV: 310    -0.360380517593E+04    0.16240E+00   -0.41632E-01  6784   0.265E-01    0.146E+01
DAV: 311    -0.360379299228E+04    0.12184E-01   -0.16015E-01  6016   0.169E-01    0.144E+01
DAV: 312    -0.360375134294E+04    0.41649E-01   -0.45089E-01  6912   0.223E-01    0.138E+01
DAV: 313    -0.360364168841E+04    0.10965E+00   -0.95657E-01  6912   0.312E-01    0.424E+00
DAV: 314    -0.360384438382E+04   -0.20270E+00   -0.37294E-01  6144   0.262E-01    0.101E+01
DAV: 315    -0.360377327716E+04    0.71107E-01   -0.12178E-01  6528   0.162E-01    0.729E+00
DAV: 316    -0.360379984147E+04   -0.26564E-01   -0.39430E-01  6400   0.208E-01    0.899E+00
DAV: 317    -0.360386627786E+04   -0.66436E-01   -0.16619E-01  6272   0.174E-01    0.135E+01
DAV: 318    -0.360382349505E+04    0.42783E-01   -0.17115E-02  5760   0.104E-01    0.136E+01
DAV: 319    -0.360379392938E+04    0.29566E-01   -0.64774E-02  6656   0.813E-02    0.133E+01
DAV: 320    -0.360379447878E+04   -0.54940E-03   -0.32724E-03  5632   0.281E-02    0.133E+01
DAV: 321    -0.360385429619E+04   -0.59817E-01   -0.13313E-01  6400   0.162E-01    0.138E+01
DAV: 322    -0.360377284481E+04    0.81451E-01   -0.13764E-01  6144   0.210E-01    0.878E+00
DAV: 323    -0.360380372588E+04   -0.30881E-01   -0.45076E-01  6784   0.216E-01    0.179E+00
DAV: 324    -0.360394062562E+04   -0.13690E+00   -0.12681E-01  5888   0.245E-01    0.556E+00
DAV: 325    -0.360392958859E+04    0.11037E-01   -0.10950E-01  6400   0.159E-01    0.576E+00
DAV: 326    -0.360393010381E+04   -0.51522E-03   -0.95590E-02  6912   0.136E-01    0.724E+00
DAV: 327    -0.360391672870E+04    0.13375E-01   -0.39423E-02  6144   0.868E-02    0.804E+00
DAV: 328    -0.360390170930E+04    0.15019E-01   -0.33522E-02  6144   0.601E-02    0.774E+00
DAV: 329    -0.360390676360E+04   -0.50543E-02   -0.59349E-02  6272   0.744E-02    0.735E+00
DAV: 330    -0.360391406113E+04   -0.72975E-02   -0.39063E-02  6400   0.501E-02    0.784E+00
DAV: 331    -0.360388212350E+04    0.31938E-01   -0.86458E-02  6528   0.711E-02    0.446E+00
DAV: 332    -0.360392804971E+04   -0.45926E-01   -0.61961E-03  5632   0.720E-02    0.501E+00
DAV: 333    -0.360393601210E+04   -0.79624E-02   -0.20532E-02  6400   0.473E-02    0.508E+00
DAV: 334    -0.360391358329E+04    0.22429E-01   -0.17239E-01  6528   0.120E-01    0.232E+00
DAV: 335    -0.360391968161E+04   -0.60983E-02   -0.35790E-01  6272   0.188E-01    0.164E+00
DAV: 336    -0.360396677120E+04   -0.47090E-01   -0.13657E-01  6016   0.185E-01    0.140E+00
DAV: 337    -0.360397404674E+04   -0.72755E-02   -0.34276E-02  5888   0.818E-02    0.152E+00
DAV: 338    -0.360397617048E+04   -0.21237E-02   -0.70454E-03  6272   0.376E-02    0.161E+00
DAV: 339    -0.360397725475E+04   -0.10843E-02   -0.17504E-02  6400   0.443E-02    0.175E+00
DAV: 340    -0.360397866267E+04   -0.14079E-02   -0.30812E-02  6400   0.555E-02    0.177E+00
DAV: 341    -0.360390161002E+04    0.77053E-01   -0.96727E-01  6656   0.380E-01    0.176E+00
DAV: 342    -0.360394268380E+04   -0.41074E-01   -0.20724E-02  5632   0.130E-01    0.173E+00
DAV: 343    -0.360394375398E+04   -0.10702E-02   -0.12279E-03  5888   0.429E-02    0.171E+00
DAV: 344    -0.360393765334E+04    0.61006E-02   -0.81261E-03  6016   0.894E-02    0.167E+00
DAV: 345    -0.360392951557E+04    0.81378E-02   -0.32245E-02  6528   0.176E-01    0.161E+00
DAV: 346    -0.360384922166E+04    0.80294E-01   -0.22290E+00  6400   0.751E-01    0.126E+01
DAV: 347    -0.360378149710E+04    0.67725E-01   -0.79926E-02  5632   0.263E-01    0.107E+01
DAV: 348    -0.360379329248E+04   -0.11795E-01   -0.43232E-03  7040   0.480E-02    0.114E+01
DAV: 349    -0.360374378453E+04    0.49508E-01   -0.37922E-01  6784   0.206E-01    0.361E+00
DAV: 350    -0.360386554332E+04   -0.12176E+00   -0.36155E-02  5760   0.169E-01    0.201E+00
DAV: 351    -0.360393650444E+04   -0.70961E-01   -0.40115E-02  6144   0.141E-01    0.561E+00
DAV: 352    -0.360391384958E+04    0.22655E-01   -0.53513E-02  6016   0.306E-01    0.678E-01
DAV: 353    -0.360396187604E+04   -0.48026E-01   -0.53139E-02  6016   0.149E-01    0.550E-01
DAV: 354    -0.360397157018E+04   -0.96941E-02   -0.72994E-02  6656   0.122E-01    0.523E-01
DAV: 355    -0.360397844025E+04   -0.68701E-02   -0.91841E-02  6528   0.103E-01    0.532E-01
DAV: 356    -0.360398481814E+04   -0.63779E-02   -0.61752E-02  6272   0.673E-02    0.505E-01
DAV: 357    -0.360399036956E+04   -0.55514E-02   -0.57707E-02  6144   0.589E-02    0.469E-01
DAV: 358    -0.360399414318E+04   -0.37736E-02   -0.47366E-02  6272   0.830E-02    0.394E-01
DAV: 359    -0.360399723345E+04   -0.30903E-02   -0.14482E-02  6144   0.731E-02    0.336E-01
DAV: 360    -0.360399812348E+04   -0.89004E-03   -0.25208E-02  6528   0.101E-01    0.275E-01
DAV: 361    -0.360400048323E+04   -0.23597E-02   -0.27288E-02  6400   0.816E-02    0.401E-01
DAV: 362    -0.360401058493E+04   -0.10102E-01   -0.98924E-02  6144   0.175E-01    0.356E+00
DAV: 363    -0.360399612434E+04    0.14461E-01   -0.93924E-03  5632   0.104E-01    0.276E+00
DAV: 364    -0.360399464645E+04    0.14779E-02   -0.33718E-03  6272   0.329E-02    0.194E+00
DAV: 365    -0.360400010695E+04   -0.54605E-02   -0.67910E-03  6144   0.477E-02    0.132E+00
DAV: 366    -0.360400873728E+04   -0.86303E-02   -0.25674E-02  6144   0.628E-02    0.217E+00
DAV: 367    -0.360400305691E+04    0.56804E-02   -0.10177E-02  6400   0.611E-02    0.116E+00
DAV: 368    -0.360400886376E+04   -0.58069E-02   -0.13798E-02  6272   0.374E-02    0.109E+00
DAV: 369    -0.360401049456E+04   -0.16308E-02   -0.14193E-02  6400   0.351E-02    0.876E-01
DAV: 370    -0.360401249225E+04   -0.19977E-02   -0.18905E-02  6400   0.347E-02    0.805E-01
DAV: 371    -0.360401456715E+04   -0.20749E-02   -0.48726E-02  6400   0.649E-02    0.134E+00
DAV: 372    -0.360401597607E+04   -0.14089E-02   -0.25456E-02  6400   0.492E-02    0.179E+00
DAV: 373    -0.360401394165E+04    0.20344E-02   -0.83971E-03  6272   0.389E-02    0.155E+00
DAV: 374    -0.360401554221E+04   -0.16006E-02   -0.11785E-02  6400   0.267E-02    0.168E+00
DAV: 375    -0.360401394911E+04    0.15931E-02   -0.85871E-03  6144   0.325E-02    0.149E+00
DAV: 376    -0.360401182297E+04    0.21261E-02   -0.95151E-02  6272   0.121E-01    0.157E+00
DAV: 377    -0.360401563648E+04   -0.38135E-02   -0.21011E-03  5632   0.466E-02    0.150E+00
DAV: 378    -0.360401791239E+04   -0.22759E-02   -0.17858E-03  6016   0.249E-02    0.184E+00
DAV: 379    -0.360401766175E+04    0.25063E-03   -0.13705E-03  6400   0.189E-02    0.217E+00
DAV: 380    -0.360401533854E+04    0.23232E-02   -0.19261E-04  5632   0.145E-02    0.221E+00
DAV: 381    -0.360401437912E+04    0.95943E-03   -0.10379E-03  6272   0.149E-02    0.199E+00
DAV: 382    -0.360401532788E+04   -0.94876E-03   -0.39579E-03  6272   0.267E-02    0.162E+00
DAV: 383    -0.360401819455E+04   -0.28667E-02   -0.60447E-03  6272   0.261E-02    0.151E+00
DAV: 384    -0.360401964522E+04   -0.14507E-02   -0.70713E-03  6400   0.281E-02    0.120E+00
DAV: 385    -0.360402187575E+04   -0.22305E-02   -0.51697E-03  6272   0.242E-02    0.104E+00
DAV: 386    -0.360401983234E+04    0.20434E-02   -0.11858E-02  5888   0.827E-02    0.288E-01
DAV: 387    -0.360402175567E+04   -0.19233E-02   -0.14497E-03  5760   0.325E-02    0.293E-01
DAV: 388    -0.360402233492E+04   -0.57925E-03   -0.60880E-04  5888   0.169E-02    0.251E-01
DAV: 389    -0.360402270096E+04   -0.36604E-03   -0.83021E-04  6400   0.130E-02    0.228E-01
DAV: 390    -0.360402258466E+04    0.11630E-03   -0.16632E-04  5760   0.930E-03    0.233E-01
DAV: 391    -0.360402470451E+04   -0.21198E-02   -0.57115E-02  6272   0.812E-02    0.201E-01
DAV: 392    -0.360402752446E+04   -0.28200E-02   -0.51911E-03  6272   0.313E-02    0.190E-01
DAV: 393    -0.360402737168E+04    0.15278E-03   -0.10893E-03  5632   0.273E-02    0.188E-01
DAV: 394    -0.360402589213E+04    0.14796E-02   -0.34472E-03  6144   0.254E-02    0.188E-01
DAV: 395    -0.360402680257E+04   -0.91045E-03   -0.49414E-04  5760   0.178E-02    0.186E-01
DAV: 396    -0.360401204371E+04    0.14759E-01   -0.41682E-01  6272   0.226E-01    0.255E-01
DAV: 397    -0.360403216911E+04   -0.20125E-01   -0.36355E-02  6272   0.916E-02    0.213E-01
DAV: 398    -0.360403778393E+04   -0.56148E-02   -0.84824E-03  5760   0.545E-02    0.207E-01
DAV: 399    -0.360403903470E+04   -0.12508E-02   -0.10998E-02  6400   0.368E-02    0.213E-01
DAV: 400    -0.360403985553E+04   -0.82083E-03   -0.47488E-03  5632   0.343E-02    0.207E-01
DAV: 401    -0.360404045625E+04   -0.60073E-03   -0.84673E-03  6400   0.271E-02    0.215E-01
DAV: 402    -0.360404116962E+04   -0.71336E-03   -0.24697E-03  6400   0.164E-02    0.217E-01
DAV: 403    -0.360404159319E+04   -0.42357E-03   -0.18402E-03  6400   0.159E-02    0.183E-01
DAV: 404    -0.360404180952E+04   -0.21634E-03   -0.29652E-02  6144   0.493E-02    0.185E-01
DAV: 405    -0.360404302602E+04   -0.12165E-02   -0.84467E-03  6400   0.280E-02    0.154E-01
DAV: 406    -0.360404367700E+04   -0.65098E-03   -0.25686E-03  5632   0.303E-02    0.161E-01
DAV: 407    -0.360404394435E+04   -0.26735E-03   -0.69597E-03  6272   0.283E-02    0.162E-01
DAV: 408    -0.360404423075E+04   -0.28640E-03   -0.29879E-04  5632   0.165E-02    0.156E-01
DAV: 409    -0.360404423144E+04   -0.68940E-06   -0.98963E-03  6144   0.325E-02    0.178E-01
DAV: 410    -0.360404431453E+04   -0.83084E-04   -0.94375E-03  6144   0.445E-02    0.240E-01
DAV: 411    -0.360404406417E+04    0.25036E-03   -0.35221E-02  6272   0.646E-02    0.192E-01
DAV: 412    -0.360404434182E+04   -0.27765E-03   -0.27407E-02  6400   0.509E-02    0.271E-01
DAV: 413    -0.360404611739E+04   -0.17756E-02   -0.59622E-03  6144   0.500E-02    0.323E-01
DAV: 414    -0.360404653362E+04   -0.41623E-03   -0.18874E-02  6400   0.517E-02    0.576E-01
DAV: 415    -0.360404542340E+04    0.11102E-02   -0.17751E-02  6400   0.430E-02    0.518E-01
DAV: 416    -0.360404649647E+04   -0.10731E-02   -0.70867E-03  6144   0.473E-02    0.410E-01
DAV: 417    -0.360404717965E+04   -0.68317E-03   -0.36559E-03  6016   0.258E-02    0.449E-01
DAV: 418    -0.360404741764E+04   -0.23800E-03   -0.48775E-04  6144   0.858E-03    0.450E-01
DAV: 419    -0.360404754219E+04   -0.12455E-03   -0.31584E-04  6528   0.469E-03    0.454E-01
DAV: 420    -0.360404806845E+04   -0.52625E-03   -0.40875E-03  6528   0.200E-02    0.457E-01
DAV: 421    -0.360404760077E+04    0.46768E-03   -0.23586E-02  6656   0.475E-02    0.403E-01
DAV: 422    -0.360404911641E+04   -0.15156E-02   -0.29076E-03  5888   0.360E-02    0.416E-01
DAV: 423    -0.360404895288E+04    0.16353E-03   -0.21509E-02  6528   0.484E-02    0.389E-01
DAV: 424    -0.360404940528E+04   -0.45239E-03   -0.17927E-02  6656   0.322E-02    0.305E-01
DAV: 425    -0.360404926611E+04    0.13916E-03   -0.26803E-02  6656   0.423E-02    0.228E-01
DAV: 426    -0.360405003038E+04   -0.76427E-03   -0.92501E-03  6400   0.481E-02    0.185E-01
DAV: 427    -0.360405086427E+04   -0.83388E-03   -0.11257E-03  5504   0.314E-02    0.192E-01
DAV: 428    -0.360405051374E+04    0.35053E-03   -0.58102E-04  6272   0.104E-02    0.203E-01
DAV: 429    -0.360405082263E+04   -0.30889E-03   -0.30078E-04  5888   0.102E-02    0.194E-01
DAV: 430    -0.360405128868E+04   -0.46605E-03   -0.40658E-03  6272   0.217E-02    0.170E-01
DAV: 431    -0.360404487227E+04    0.64164E-02   -0.11737E-01  5888   0.116E-01    0.258E-01
DAV: 432    -0.360405215300E+04   -0.72807E-02   -0.16839E-02  5376   0.881E-02    0.198E-01
DAV: 433    -0.360405249518E+04   -0.34218E-03   -0.80547E-04  6272   0.173E-02    0.192E-01
DAV: 434    -0.360405263944E+04   -0.14426E-03   -0.24558E-04  6272   0.936E-03    0.187E-01
DAV: 435    -0.360405282364E+04   -0.18420E-03   -0.54074E-04  6400   0.138E-02    0.185E-01
DAV: 436    -0.360405108867E+04    0.17350E-02   -0.31168E-02  6144   0.623E-02    0.192E-01
DAV: 437    -0.360405299511E+04   -0.19064E-02   -0.76764E-04  5376   0.299E-02    0.188E-01
DAV: 438    -0.360405320000E+04   -0.20489E-03   -0.31372E-04  6016   0.121E-02    0.182E-01
DAV: 439    -0.360405320820E+04   -0.81976E-05   -0.48669E-06  5504   0.187E-03    0.181E-01
DAV: 440    -0.360405330226E+04   -0.94060E-04   -0.19201E-04  6016   0.527E-03    0.176E-01
DAV: 441    -0.360405381006E+04   -0.50780E-03   -0.26202E-03  6272   0.205E-02    0.128E-01
DAV: 442    -0.360405354745E+04    0.26261E-03   -0.38270E-03  6144   0.372E-02    0.129E-01
DAV: 443    -0.360405353507E+04    0.12380E-04   -0.97498E-03  6272   0.387E-02    0.136E-01
DAV: 444    -0.360405385217E+04   -0.31709E-03   -0.24517E-03  6272   0.200E-02    0.137E-01
DAV: 445    -0.360405382034E+04    0.31826E-04   -0.30914E-03  6400   0.172E-02    0.158E-01
DAV: 446    -0.360405366574E+04    0.15460E-03   -0.76998E-04  5888   0.176E-02    0.154E-01
DAV: 447    -0.360405366590E+04   -0.16036E-06   -0.37006E-04  5888   0.741E-03    0.154E-01
DAV: 448    -0.360405354263E+04    0.12327E-03   -0.25907E-04  6016   0.815E-03    0.159E-01
DAV: 449    -0.360405346843E+04    0.74210E-04   -0.77149E-04  6272   0.934E-03    0.167E-01
DAV: 450    -0.360405341514E+04    0.53283E-04   -0.19254E-03  6272   0.128E-02    0.168E-01
DAV: 451    -0.360405315463E+04    0.26051E-03   -0.95778E-03  5888   0.387E-02    0.162E-01
DAV: 452    -0.360405350943E+04   -0.35479E-03   -0.50347E-04  5504   0.160E-02    0.160E-01
DAV: 453    -0.360405356212E+04   -0.52691E-04   -0.12257E-04  5888   0.580E-03    0.165E-01
DAV: 454    -0.360405354498E+04    0.17140E-04   -0.78592E-05  6400   0.278E-03    0.166E-01
DAV: 455    -0.360405352202E+04    0.22954E-04   -0.19496E-04  6400   0.339E-03    0.168E-01
DAV: 456    -0.360405293310E+04    0.58892E-03   -0.71390E-03  6144   0.434E-02    0.148E-01
DAV: 457    -0.360405365648E+04   -0.72337E-03   -0.26455E-04  5632   0.143E-02    0.150E-01
DAV: 458    -0.360405370063E+04   -0.44155E-04   -0.65797E-05  6144   0.371E-03    0.152E-01
DAV: 459    -0.360405369152E+04    0.91072E-05   -0.11239E-04  5888   0.620E-03    0.157E-01
DAV: 460    -0.360405367607E+04    0.15455E-04   -0.31488E-04  6400   0.630E-03    0.156E-01
DAV: 461    -0.360405289747E+04    0.77860E-03   -0.15314E-02  6016   0.462E-02    0.127E-01
DAV: 462    -0.360405415398E+04   -0.12565E-02   -0.46411E-04  5376   0.221E-02    0.127E-01
DAV: 463    -0.360405433436E+04   -0.18038E-03   -0.19350E-05  5632   0.558E-03    0.127E-01
DAV: 464    -0.360405436862E+04   -0.34263E-04   -0.10102E-06  5248   0.137E-03    0.127E-01
DAV: 465    -0.360405440601E+04   -0.37386E-04   -0.73334E-05  6016   0.433E-03    0.127E-01
DAV: 466    -0.360405444751E+04   -0.41495E-04   -0.29981E-04  5888   0.858E-03    0.117E-01
DAV: 467    -0.360405451935E+04   -0.71844E-04   -0.13524E-04  6272   0.521E-03    0.115E-01
DAV: 468    -0.360405453368E+04   -0.14334E-04   -0.19948E-05  5760   0.334E-03    0.116E-01
DAV: 469    -0.360405459314E+04   -0.59452E-04   -0.20330E-04  6272   0.514E-03    0.114E-01
DAV: 470    -0.360405469435E+04   -0.10121E-03   -0.77493E-04  6400   0.800E-03    0.112E-01
DAV: 471    -0.360405484668E+04   -0.15233E-03   -0.17665E-03  6528   0.140E-02    0.110E-01
DAV: 472    -0.360405502225E+04   -0.17557E-03   -0.80663E-04  6400   0.868E-03    0.111E-01
DAV: 473    -0.360405509398E+04   -0.71738E-04   -0.13284E-03  6400   0.993E-03    0.112E-01
DAV: 474    -0.360405515855E+04   -0.64570E-04   -0.14944E-03  6400   0.995E-03    0.110E-01
DAV: 475    -0.360405532924E+04   -0.17069E-03   -0.82215E-04  6400   0.704E-03    0.108E-01
DAV: 476    -0.360405459158E+04    0.73766E-03   -0.16917E-02  6144   0.410E-02    0.886E-02
DAV: 477    -0.360405523773E+04   -0.64614E-03   -0.10641E-02  6528   0.292E-02    0.795E-02
DAV: 478    -0.360405582514E+04   -0.58741E-03   -0.67967E-03  6400   0.211E-02    0.698E-02
DAV: 479    -0.360405621720E+04   -0.39206E-03   -0.60075E-03  6400   0.195E-02    0.629E-02
DAV: 480    -0.360405677518E+04   -0.55798E-03   -0.59036E-04  5760   0.144E-02    0.573E-02
DAV: 481    -0.360405486603E+04    0.19091E-02   -0.52606E-02  5760   0.645E-02    0.897E-02
DAV: 482    -0.360405685151E+04   -0.19855E-02   -0.10472E-02  5248   0.597E-02    0.520E-02
DAV: 483    -0.360405724810E+04   -0.39658E-03   -0.98484E-04  5248   0.175E-02    0.500E-02
DAV: 484    -0.360405718766E+04    0.60436E-04   -0.40609E-04  6144   0.795E-03    0.657E-02
DAV: 485    -0.360405728366E+04   -0.96003E-04   -0.21772E-03  6272   0.137E-02    0.656E-02
DAV: 486    -0.360405721519E+04    0.68476E-04   -0.60987E-03  6400   0.195E-02    0.575E-02
DAV: 487    -0.360405757724E+04   -0.36205E-03   -0.12453E-03  6400   0.115E-02    0.483E-02
DAV: 488    -0.360405766984E+04   -0.92599E-04   -0.37862E-04  6272   0.684E-03    0.462E-02
DAV: 489    -0.360405764984E+04    0.20003E-04   -0.39293E-03  6400   0.155E-02    0.465E-02
DAV: 490    -0.360405762640E+04    0.23437E-04   -0.46083E-03  6528   0.150E-02    0.476E-02
DAV: 491    -0.360405769018E+04   -0.63774E-04   -0.44566E-03  6656   0.127E-02    0.438E-02
DAV: 492    -0.360405793786E+04   -0.24768E-03   -0.44837E-04  5376   0.109E-02    0.383E-02
DAV: 493    -0.360405793384E+04    0.40159E-05   -0.76602E-04  6272   0.774E-03    0.386E-02
DAV: 494    -0.360405791912E+04    0.14723E-04   -0.98849E-04  6528   0.829E-03    0.427E-02
DAV: 495    -0.360405798287E+04   -0.63748E-04   -0.60002E-04  6400   0.662E-03    0.428E-02
DAV: 496    -0.360405805338E+04   -0.70508E-04   -0.50242E-04  6400   0.607E-03    0.349E-02
DAV: 497    -0.360405794983E+04    0.10355E-03   -0.13044E-03  6144   0.135E-02    0.535E-02
DAV: 498    -0.360405805023E+04   -0.10040E-03   -0.74408E-05  5760   0.715E-03    0.514E-02
DAV: 499    -0.360405807593E+04   -0.25697E-04   -0.40437E-05  5760   0.361E-03    0.475E-02
DAV: 500    -0.360405805576E+04    0.20173E-04   -0.73554E-05  6144   0.330E-03
 -----------------------------------------------------------------------------
|                                                                             |
|           W    W    AA    RRRRR   N    N  II  N    N   GGGG   !!!           |
|           W    W   A  A   R    R  NN   N  II  NN   N  G    G  !!!           |
|           W    W  A    A  R    R  N N  N  II  N N  N  G       !!!           |
|           W WW W  AAAAAA  RRRRR   N  N N  II  N  N N  G  GGG   !            |
|           WW  WW  A    A  R   R   N   NN  II  N   NN  G    G                |
|           W    W  A    A  R    R  N    N  II  N    N   GGGG   !!!           |
|                                                                             |
|     The electronic self-consistency was not achieved in the given           |
|     number of steps (NELM). The forces and other quantities evaluated       |
|     might not be reliable so examine the results carefully. If you find     |
|     spurious results, we suggest increasing NELM, if you were close to      |
|     convergence or switching to a different ALGO or adjusting the           |
|     density mixing parameters otherwise.                                    |
|                                                                             |
 -----------------------------------------------------------------------------

 augmentation electrons   1811.87593737739     
 soft         electrons  0.000000000000000E+000
 total        electrons   1811.87593737739     
 augmentation electrons -5.530533474918821E-002
 soft         electrons  0.000000000000000E+000
 total        electrons -5.530533474918821E-002
 augmentation electrons   1923.93918884376     
 soft         electrons  0.000000000000000E+000
 total        electrons   1923.93918884376     
 augmentation electrons   1866.42202897176     
 soft         electrons  0.000000000000000E+000
 total        electrons   1866.42202897176     
 augmentation electrons   54.7782523260060     
 soft         electrons   1757.09759719700     
 total        electrons   1811.87584952300     
 augmentation electrons   25.4935654115696     
 soft         electrons   1757.09759719700     
 total        electrons   41.9446687865202     
 translations:           0           1           0
   1 F= -.36419652E+04 E0= -.36419649E+04  d E =-.364197E+04  mag=    42.0000
 curvature:   0.00 expect dE= 0.000E+00 dE for cont linesearch  0.000E+00
 trial: gam= 0.00000 g(F)=  0.171E+00 g(S)=  0.000E+00 ort = 0.000E+00 (trialstep = 0.100E+01)
 search vector abs. value=  0.171E+00
 bond charge predicted
       N       E                     dE             d eps       ncg     rms          rms(c)
DAV:   1    -0.360413267020E+04   -0.74594E-01   -0.12072E+01  5248   0.240E+00    0.172E+00
DAV:   2    -0.360418059279E+04   -0.47923E-01   -0.58410E-01  6144   0.544E-01    0.103E+00
DAV:   3    -0.360417987280E+04    0.71999E-03   -0.19363E-02  5632   0.136E-01    0.540E-01
DAV:   4    -0.360417916273E+04    0.71008E-03   -0.16710E-03  6912   0.302E-02    0.363E-01
DAV:   5    -0.360417852922E+04    0.63351E-03   -0.20981E-03  6784   0.374E-02    0.172E-01
DAV:   6    -0.360417857557E+04   -0.46358E-04   -0.11383E-03  6016   0.300E-02    0.389E-02
DAV:   7    -0.360417858689E+04   -0.11315E-04   -0.15713E-04  5632   0.102E-02    0.296E-02
DAV:   8    -0.360417859232E+04   -0.54337E-05   -0.41697E-05  7168   0.320E-03    0.204E-02
DAV:   9    -0.360417860132E+04   -0.89953E-05   -0.12071E-04  6400   0.415E-03    0.146E-02
DAV:  10    -0.360417861272E+04   -0.11405E-04   -0.11387E-04  6784   0.347E-03    0.130E-02
DAV:  11    -0.360417862200E+04   -0.92796E-05   -0.29182E-05  6272   0.216E-03    0.124E-02
DAV:  12    -0.360417863417E+04   -0.12165E-04   -0.19657E-04  6144   0.401E-03    0.122E-02
DAV:  13    -0.360417861898E+04    0.15189E-04   -0.12356E-03  6528   0.108E-02    0.141E-02
DAV:  14    -0.360417867261E+04   -0.53628E-04   -0.37270E-04  6400   0.521E-03    0.126E-02
DAV:  15    -0.360417869914E+04   -0.26536E-04   -0.42938E-04  6272   0.408E-03    0.122E-02
DAV:  16    -0.360417864295E+04    0.56195E-04   -0.26701E-03  6400   0.135E-02    0.162E-02
DAV:  17    -0.360417867860E+04   -0.35651E-04   -0.19591E-03  6912   0.843E-03    0.159E-02
DAV:  18    -0.360417877124E+04   -0.92645E-04   -0.81697E-04  6400   0.708E-03    0.131E-02
DAV:  19    -0.360417878263E+04   -0.11388E-04   -0.15280E-03  6528   0.763E-03    0.139E-02
DAV:  20    -0.360417881821E+04   -0.35574E-04   -0.12803E-03  6528   0.663E-03    0.135E-02
DAV:  21    -0.360417890269E+04   -0.84480E-04   -0.71085E-05  5632   0.680E-03    0.965E-03
DAV:  22    -0.360417891186E+04   -0.91744E-05   -0.55832E-06  5632   0.227E-03    0.907E-03
DAV:  23    -0.360417891867E+04   -0.68065E-05   -0.15146E-04  6400   0.280E-03    0.944E-03
DAV:  24    -0.360417889670E+04    0.21969E-04   -0.17224E-03  6272   0.102E-02    0.136E-02
DAV:  25    -0.360417888127E+04    0.15430E-04   -0.32863E-03  6400   0.109E-02    0.184E-02
DAV:  26    -0.360417898870E+04   -0.10743E-03   -0.56486E-04  5888   0.749E-03    0.142E-02
DAV:  27    -0.360417895169E+04    0.37008E-04   -0.11035E-03  6016   0.130E-02    0.120E-02
DAV:  28    -0.360417891919E+04    0.32493E-04   -0.65683E-04  6272   0.450E-03    0.125E-02
DAV:  29    -0.360417867004E+04    0.24916E-03   -0.49439E-03  6016   0.161E-02    0.212E-02
DAV:  30    -0.360417893197E+04   -0.26193E-03   -0.19241E-03  5632   0.206E-02    0.123E-02
DAV:  31    -0.360417887550E+04    0.56467E-04   -0.27119E-03  6016   0.117E-02    0.150E-02
DAV:  32    -0.360417812008E+04    0.75542E-03   -0.24362E-02  5888   0.358E-02    0.380E-02
DAV:  33    -0.360417900757E+04   -0.88749E-03   -0.54829E-04  5120   0.199E-02    0.185E-02
DAV:  34    -0.360417908166E+04   -0.74096E-04   -0.20980E-04  5376   0.879E-03    0.162E-02
DAV:  35    -0.360417904045E+04    0.41207E-04   -0.11403E-03  5888   0.863E-03    0.176E-02
DAV:  36    -0.360417867288E+04    0.36758E-03   -0.88575E-03  6016   0.220E-02    0.301E-02
DAV:  37    -0.360417854201E+04    0.13087E-03   -0.70539E-03  6272   0.139E-02    0.363E-02
DAV:  38    -0.360417877741E+04   -0.23540E-03   -0.13215E-03  5888   0.113E-02    0.329E-02
DAV:  39    -0.360417887587E+04   -0.98460E-04   -0.64077E-05  5376   0.722E-03    0.311E-02
DAV:  40    -0.360417886939E+04    0.64817E-05   -0.99973E-05  6272   0.223E-03    0.305E-02
DAV:  41    -0.360417887492E+04   -0.55342E-05   -0.27437E-06  5632   0.165E-03    0.302E-02
DAV:  42    -0.360417866080E+04    0.21412E-03   -0.54056E-03  5632   0.196E-02    0.277E-02
DAV:  43    -0.360417861322E+04    0.47575E-04   -0.53256E-03  6016   0.124E-02    0.295E-02
DAV:  44    -0.360417886171E+04   -0.24848E-03   -0.71871E-04  5632   0.983E-03    0.259E-02
DAV:  45    -0.360417892150E+04   -0.59792E-04   -0.59613E-04  5760   0.452E-03    0.258E-02
DAV:  46    -0.360417891819E+04    0.33062E-05   -0.12364E-03  6400   0.589E-03    0.271E-02
DAV:  47    -0.360417891567E+04    0.25218E-05   -0.18174E-03  6272   0.708E-03    0.295E-02
DAV:  48    -0.360417876628E+04    0.14940E-03   -0.73018E-03  6016   0.166E-02    0.397E-02
DAV:  49    -0.360417901008E+04   -0.24380E-03   -0.79038E-04  5504   0.109E-02    0.368E-02
DAV:  50    -0.360417908834E+04   -0.78264E-04   -0.61669E-05  5376   0.775E-03    0.352E-02
DAV:  51    -0.360417901993E+04    0.68410E-04   -0.43413E-04  5888   0.650E-03    0.342E-02
DAV:  52    -0.360417891674E+04    0.10319E-03   -0.10928E-03  6016   0.693E-03    0.341E-02
DAV:  53    -0.360417895680E+04   -0.40064E-04   -0.40562E-04  6016   0.412E-03    0.343E-02
DAV:  54    -0.360417897669E+04   -0.19890E-04   -0.25485E-04  6016   0.297E-03    0.342E-02
DAV:  55    -0.360417905003E+04   -0.73335E-04   -0.91050E-04  5888   0.111E-02    0.328E-02
DAV:  56    -0.360417892476E+04    0.12527E-03   -0.44317E-03  6016   0.149E-02    0.337E-02
DAV:  57    -0.360417902240E+04   -0.97644E-04   -0.19213E-03  6016   0.795E-03    0.298E-02
DAV:  58    -0.360417898429E+04    0.38106E-04   -0.46066E-03  6016   0.114E-02    0.301E-02
DAV:  59    -0.360417914549E+04   -0.16119E-03   -0.86894E-04  5888   0.850E-03    0.214E-02
DAV:  60    -0.360417919181E+04   -0.46325E-04   -0.15880E-04  5376   0.862E-03    0.129E-02
DAV:  61    -0.360417919282E+04   -0.10081E-05   -0.35879E-06  5120   0.849E-04    0.128E-02
DAV:  62    -0.360417919983E+04   -0.70060E-05   -0.23186E-04  6016   0.463E-03    0.173E-02
DAV:  63    -0.360417880878E+04    0.39105E-03   -0.86482E-03  5760   0.252E-02    0.237E-02
DAV:  64    -0.360417894639E+04   -0.13761E-03   -0.22109E-03  6144   0.998E-03    0.224E-02
DAV:  65    -0.360417905108E+04   -0.10469E-03   -0.67881E-04  5888   0.698E-03    0.176E-02
DAV:  66    -0.360417912730E+04   -0.76224E-04   -0.29378E-05  5376   0.525E-03    0.162E-02
DAV:  67    -0.360417906580E+04    0.61507E-04   -0.27374E-03  5888   0.149E-02    0.140E-02
DAV:  68    -0.360417907630E+04   -0.10499E-04   -0.19474E-03  5760   0.171E-02    0.147E-02
DAV:  69    -0.360417914771E+04   -0.71411E-04   -0.70812E-05  5376   0.617E-03    0.105E-02
DAV:  70    -0.360417914096E+04    0.67487E-05   -0.29509E-05  5632   0.154E-03    0.114E-02
DAV:  71    -0.360417913956E+04    0.13974E-05   -0.13983E-05  5376   0.749E-04    0.121E-02
DAV:  72    -0.360417910815E+04    0.31414E-04   -0.30948E-04  6144   0.484E-03    0.155E-02
DAV:  73    -0.360417890045E+04    0.20769E-03   -0.49203E-03  5888   0.158E-02    0.222E-02
DAV:  74    -0.360417904738E+04   -0.14693E-03   -0.40401E-04  5376   0.876E-03    0.132E-02
DAV:  75    -0.360417907828E+04   -0.30892E-04   -0.66044E-05  5632   0.384E-03    0.110E-02
DAV:  76    -0.360417908832E+04   -0.10046E-04   -0.81267E-05  5504   0.410E-03    0.101E-02
DAV:  77    -0.360417809675E+04    0.99158E-03   -0.32066E-02  5760   0.428E-02    0.397E-02
DAV:  78    -0.360417905977E+04   -0.96302E-03   -0.10494E-03  5120   0.202E-02    0.194E-02
DAV:  79    -0.360417917699E+04   -0.11722E-03   -0.38336E-04  5120   0.122E-02    0.127E-02
DAV:  80    -0.360417918014E+04   -0.31529E-05   -0.75221E-06  5248   0.140E-03    0.127E-02
DAV:  81    -0.360417917954E+04    0.59811E-06   -0.18326E-06  4352   0.534E-04
 augmentation electrons   1811.89465337505     
 soft         electrons  0.000000000000000E+000
 total        electrons   1811.89465337505     
 augmentation electrons -5.551183850454309E-002
 soft         electrons  0.000000000000000E+000
 total        electrons -5.551183850454309E-002
 augmentation electrons   1896.52454853307     
 soft         electrons  0.000000000000000E+000
 total        electrons   1896.52454853307     
 augmentation electrons   1839.00738866107     
 soft         electrons  0.000000000000000E+000
 total        electrons   1839.00738866107     
 augmentation electrons   54.8051615370505     
 soft         electrons   1757.08940993104     
 total        electrons   1811.89457146809     
 augmentation electrons   25.4938245547916     
 soft         electrons   1757.08940993104     
 total        electrons   41.9444625955695     
 translations:           0           1           0
   2 F= -.36420840E+04 E0= -.36420840E+04  d E =-.118788E+00  mag=    42.0000
 trial-energy change:   -0.118788  1 .order   -0.123722   -0.170507   -0.076936
 step:   1.8222(harm=  1.8222)  dis= 0.03765  next Energy= -3642.120577 (dE=-0.155E+00)
 bond charge predicted
       N       E                     dE             d eps       ncg     rms          rms(c)
DAV:   1    -0.360417987726E+04   -0.69712E-03   -0.81543E+00  5248   0.197E+00    0.141E+00
DAV:   2    -0.360421180664E+04   -0.31929E-01   -0.39500E-01  6144   0.452E-01    0.846E-01
DAV:   3    -0.360421114974E+04    0.65690E-03   -0.13519E-02  5632   0.115E-01    0.442E-01
DAV:   4    -0.360421066809E+04    0.48165E-03   -0.11328E-03  6784   0.247E-02    0.295E-01
DAV:   5    -0.360421023190E+04    0.43619E-03   -0.12877E-03  6528   0.300E-02    0.145E-01
DAV:   6    -0.360421024597E+04   -0.14078E-04   -0.76700E-04  6016   0.247E-02    0.335E-02
DAV:   7    -0.360421025019E+04   -0.42125E-05   -0.96428E-05  5760   0.804E-03    0.237E-02
DAV:   8    -0.360421025054E+04   -0.35236E-06   -0.18149E-05  6656   0.238E-03    0.153E-02
DAV:   9    -0.360421025230E+04   -0.17633E-05   -0.48785E-05  6272   0.283E-03    0.927E-03
DAV:  10    -0.360421025555E+04   -0.32487E-05   -0.33539E-05  6656   0.208E-03    0.755E-03
DAV:  11    -0.360421025865E+04   -0.31029E-05   -0.17514E-05  5376   0.136E-03    0.700E-03
DAV:  12    -0.360421026154E+04   -0.28864E-05   -0.13838E-04  6272   0.351E-03    0.714E-03
DAV:  13    -0.360421026333E+04   -0.17907E-05   -0.20823E-04  6272   0.366E-03    0.721E-03
DAV:  14    -0.360421027351E+04   -0.10179E-04   -0.12032E-04  5760   0.239E-03    0.656E-03
DAV:  15    -0.360421026710E+04    0.64072E-05   -0.49033E-04  6400   0.495E-03    0.759E-03
DAV:  16    -0.360421025830E+04    0.87985E-05   -0.70100E-04  6400   0.522E-03    0.852E-03
DAV:  17    -0.360421028399E+04   -0.25686E-04   -0.32290E-04  6400   0.367E-03    0.706E-03
DAV:  18    -0.360421029356E+04   -0.95642E-05   -0.35302E-04  5888   0.312E-03    0.674E-03
DAV:  19    -0.360421029354E+04    0.11860E-07   -0.49675E-04  6144   0.395E-03    0.721E-03
DAV:  20    -0.360421031697E+04   -0.23427E-04   -0.13715E-04  6272   0.311E-03    0.539E-03
DAV:  21    -0.360421032440E+04   -0.74298E-05   -0.14114E-04  5632   0.211E-03    0.496E-03
DAV:  22    -0.360421031458E+04    0.98154E-05   -0.50995E-04  6400   0.437E-03    0.657E-03
DAV:  23    -0.360421031022E+04    0.43632E-05   -0.61475E-04  6144   0.413E-03    0.729E-03
DAV:  24    -0.360421033706E+04   -0.26837E-04   -0.14895E-04  6144   0.326E-03    0.486E-03
DAV:  25    -0.360421029141E+04    0.45647E-04   -0.13827E-03  5888   0.762E-03    0.895E-03
DAV:  26    -0.360421032538E+04   -0.33969E-04   -0.39253E-04  6400   0.415E-03    0.623E-03
DAV:  27    -0.360421030564E+04    0.19746E-04   -0.92934E-04  6144   0.508E-03    0.796E-03
DAV:  28    -0.360421036183E+04   -0.56198E-04   -0.30804E-05  5376   0.523E-03    0.237E-03
DAV:  29    -0.360421036377E+04   -0.19399E-05   -0.24167E-05  5248   0.102E-03    0.208E-03
DAV:  30    -0.360421035150E+04    0.12269E-04   -0.29979E-04  6272   0.372E-03    0.413E-03
DAV:  31    -0.360421036148E+04   -0.99748E-05   -0.56918E-05  6272   0.188E-03    0.263E-03
DAV:  32    -0.360421036296E+04   -0.14763E-05   -0.66181E-05  5376   0.123E-03    0.238E-03
DAV:  33    -0.360421036205E+04    0.90359E-06   -0.92049E-05  5504   0.142E-03    0.259E-03
DAV:  34    -0.360421036433E+04   -0.22781E-05   -0.49793E-05  5504   0.119E-03    0.207E-03
DAV:  35    -0.360421036725E+04   -0.29231E-05   -0.11722E-05  5632   0.115E-03    0.128E-03
DAV:  36    -0.360421036824E+04   -0.98717E-06   -0.14409E-05  5888   0.153E-03    0.109E-03
DAV:  37    -0.360421036744E+04    0.80229E-06   -0.21487E-05  5376   0.105E-03    0.138E-03
DAV:  38    -0.360421036803E+04   -0.59084E-06   -0.62340E-06  5376   0.637E-04
 augmentation electrons   1811.90904473554     
 soft         electrons  0.000000000000000E+000
 total        electrons   1811.90904473554     
 augmentation electrons -5.563929605681981E-002
 soft         electrons  0.000000000000000E+000
 total        electrons -5.563929605681981E-002
 augmentation electrons   1888.36220007824     
 soft         electrons  0.000000000000000E+000
 total        electrons   1888.36220007824     
 augmentation electrons   1830.84504020624     
 soft         electrons  0.000000000000000E+000
 total        electrons   1830.84504020624     
 augmentation electrons   54.8270071750238     
 soft         electrons   1757.08196035900     
 total        electrons   1811.90896753402     
 augmentation electrons   25.4923206293983     
 soft         electrons   1757.08196035900     
 total        electrons   41.9443352624421     
 translations:           0           1           0
   3 F= -.36421119E+04 E0= -.36421119E+04  d E =-.146683E+00  mag=    42.0000
 curvature:  -0.91 expect dE=-0.363E+00 dE for cont linesearch -0.626E-04
 trial: gam= 2.31437 g(F)=  0.398E+00 g(S)=  0.000E+00 ort = 0.342E-02 (trialstep = 0.150E+00)
 search vector abs. value=  0.133E+01
 bond charge predicted
       N       E                     dE             d eps       ncg     rms          rms(c)
DAV:   1    -0.360425281984E+04   -0.42452E-01   -0.21688E+00  5248   0.108E+00    0.707E-01
DAV:   2    -0.360426106237E+04   -0.82425E-02   -0.10362E-01  6144   0.240E-01    0.420E-01
DAV:   3    -0.360426081784E+04    0.24454E-03   -0.35454E-03  5632   0.601E-02    0.227E-01
DAV:   4    -0.360426066882E+04    0.14901E-03   -0.29626E-04  6656   0.132E-02    0.153E-01
DAV:   5    -0.360426052445E+04    0.14438E-03   -0.36355E-04  6528   0.174E-02    0.724E-02
DAV:   6    -0.360426052611E+04   -0.16643E-05   -0.20158E-04  5888   0.132E-02    0.174E-02
DAV:   7    -0.360426052614E+04   -0.30399E-07   -0.21836E-05  6016   0.402E-03    0.111E-02
DAV:   8    -0.360426052550E+04    0.64225E-06   -0.29489E-06  5888   0.127E-03
 augmentation electrons   1811.91693935308     
 soft         electrons  0.000000000000000E+000
 total        electrons   1811.91693935308     
 augmentation electrons -5.557410712695603E-002
 soft         electrons  0.000000000000000E+000
 total        electrons -5.557410712695603E-002
 augmentation electrons   1887.16190884086     
 soft         electrons  0.000000000000000E+000
 total        electrons   1887.16190884086     
 augmentation electrons   1829.64474896886     
 soft         electrons  0.000000000000000E+000
 total        electrons   1829.64474896886     
 augmentation electrons   54.8355489974378     
 soft         electrons   1757.08131401523     
 total        electrons   1811.91686301266     
 augmentation electrons   25.4916759351099     
 soft         electrons   1757.08131401523     
 total        electrons   41.9444005302256     
 translations:           0           1           0
   4 F= -.36421614E+04 E0= -.36421614E+04  d E =-.495016E-01  mag=    42.0000
 trial-energy change:   -0.049502  1 .order   -0.048873   -0.060732   -0.037014
 step:   0.3233(harm=  0.3831)  dis= 0.01876  next Energy= -3642.183888 (dE=-0.720E-01)
 bond charge predicted
       N       E                     dE             d eps       ncg     rms          rms(c)
DAV:   1    -0.360427885632E+04   -0.18330E-01   -0.29260E+00  5248   0.126E+00    0.820E-01
DAV:   2    -0.360429001021E+04   -0.11154E-01   -0.13986E-01  6272   0.278E-01    0.484E-01
DAV:   3    -0.360428967192E+04    0.33829E-03   -0.47680E-03  5632   0.699E-02    0.263E-01
DAV:   4    -0.360428947413E+04    0.19779E-03   -0.39897E-04  6656   0.153E-02    0.176E-01
DAV:   5    -0.360428928461E+04    0.18952E-03   -0.50660E-04  6528   0.201E-02    0.837E-02
DAV:   6    -0.360428928907E+04   -0.44593E-05   -0.28272E-04  5760   0.152E-02    0.207E-02
DAV:   7    -0.360428929038E+04   -0.13056E-05   -0.31052E-05  6016   0.462E-03    0.134E-02
DAV:   8    -0.360428929036E+04    0.15207E-07   -0.69348E-06  6400   0.153E-03
 augmentation electrons   1811.92366395611     
 soft         electrons  0.000000000000000E+000
 total        electrons   1811.92366395611     
 augmentation electrons -5.560251688672509E-002
 soft         electrons  0.000000000000000E+000
 total        electrons -5.560251688672509E-002
 augmentation electrons   1887.99052607210     
 soft         electrons  0.000000000000000E+000
 total        electrons   1887.99052607210     
 augmentation electrons   1830.47336620010     
 soft         electrons  0.000000000000000E+000
 total        electrons   1830.47336620010     
 augmentation electrons   54.8430611566453     
 soft         electrons   1757.08052670391     
 total        electrons   1811.92358786056     
 augmentation electrons   25.4904014661174     
 soft         electrons   1757.08052670391     
 total        electrons   41.9443722338306     
 translations:           0           1           0
   5 F= -.36421891E+04 E0= -.36421891E+04  d E =-.771420E-01  mag=    42.0000
 curvature:  -0.59 expect dE=-0.405E-01 dE for cont linesearch -0.190E-02
 ZBRENT: extrapolating
 opt :   0.3862  next Energy= -3642.191115 (dE=-0.792E-01)
 bond charge predicted
       N       E                     dE             d eps       ncg     rms          rms(c)
DAV:   1    -0.360429069863E+04   -0.14083E-02   -0.38367E-01  5760   0.456E-01    0.297E-01
DAV:   2    -0.360429212697E+04   -0.14283E-02   -0.17888E-02  6144   0.101E-01    0.174E-01
DAV:   3    -0.360429208770E+04    0.39274E-04   -0.62128E-04  5632   0.252E-02    0.957E-02
DAV:   4    -0.360429206336E+04    0.24336E-04   -0.53290E-05  6656   0.554E-03    0.643E-02
DAV:   5    -0.360429204075E+04    0.22615E-04   -0.86984E-05  6528   0.747E-03    0.306E-02
DAV:   6    -0.360429204315E+04   -0.24016E-05   -0.52789E-05  5632   0.557E-03    0.849E-03
DAV:   7    -0.360429204476E+04   -0.16130E-05   -0.76183E-06  5120   0.186E-03    0.617E-03
DAV:   8    -0.360429204564E+04   -0.87987E-06   -0.48282E-06  5760   0.778E-04
 augmentation electrons   1811.92523966989     
 soft         electrons  0.000000000000000E+000
 total        electrons   1811.92523966989     
 augmentation electrons -5.562495667482899E-002
 soft         electrons  0.000000000000000E+000
 total        electrons -5.562495667482899E-002
 augmentation electrons   1888.96071667350     
 soft         electrons  0.000000000000000E+000
 total        electrons   1888.96071667350     
 augmentation electrons   1831.44355680150     
 soft         electrons  0.000000000000000E+000
 total        electrons   1831.44355680150     
 augmentation electrons   54.8449265646010     
 soft         electrons   1757.08023695065     
 total        electrons   1811.92516351525     
 augmentation electrons   25.4896704011625     
 soft         electrons   1757.08023695065     
 total        electrons   41.9443498436981     
 translations:           0           1           0
   6 F= -.36421913E+04 E0= -.36421913E+04  d E =-.793926E-01  mag=    42.0000
 curvature:  -0.63 expect dE=-0.573E-01 dE for cont linesearch -0.149E-04
 trial: gam= 0.26820 g(F)=  0.903E-01 g(S)=  0.000E+00 ort = 0.558E-02 (trialstep = 0.197E+00)
 search vector abs. value=  0.189E+00
 bond charge predicted
       N       E                     dE             d eps       ncg     rms          rms(c)
DAV:   1    -0.360430518491E+04   -0.13140E-01   -0.59574E-01  5248   0.703E-01    0.322E-01
DAV:   2    -0.360430760466E+04   -0.24198E-02   -0.29246E-02  5632   0.135E-01    0.187E-01
DAV:   3    -0.360430755944E+04    0.45216E-04   -0.99855E-04  5632   0.335E-02    0.108E-01
DAV:   4    -0.360430751958E+04    0.39861E-04   -0.10910E-04  7040   0.901E-03    0.739E-02
DAV:   5    -0.360430748309E+04    0.36489E-04   -0.99549E-05  6400   0.909E-03    0.317E-02
DAV:   6    -0.360430748522E+04   -0.21236E-05   -0.62082E-05  5632   0.646E-03    0.845E-03
DAV:   7    -0.360430748665E+04   -0.14265E-05   -0.87968E-06  5504   0.230E-03    0.617E-03
DAV:   8    -0.360430748745E+04   -0.80366E-06   -0.65572E-06  6144   0.101E-03
 augmentation electrons   1811.92126144621     
 soft         electrons  0.000000000000000E+000
 total        electrons   1811.92126144621     
 augmentation electrons -5.575473627033516E-002
 soft         electrons  0.000000000000000E+000
 total        electrons -5.575473627033516E-002
 augmentation electrons   1891.25063964798     
 soft         electrons  0.000000000000000E+000
 total        electrons   1891.25063964798     
 augmentation electrons   1833.73347977598     
 soft         electrons  0.000000000000000E+000
 total        electrons   1833.73347977598     
 augmentation electrons   54.8383914587585     
 soft         electrons   1757.08279421195     
 total        electrons   1811.92118567071     
 augmentation electrons   25.4887887846000     
 soft         electrons   1757.08279421195     
 total        electrons   41.9442202490541     
 translations:           0           1           0
   7 F= -.36422065E+04 E0= -.36422065E+04  d E =-.152001E-01  mag=    42.0000
 trial-energy change:   -0.015200  1 .order   -0.013207   -0.018070   -0.008345
 step:   0.2612(harm=  0.3659)  dis= 0.00551  next Energy= -3642.207931 (dE=-0.166E-01)
 bond charge predicted
       N       E                     dE             d eps       ncg     rms          rms(c)
DAV:   1    -0.360431015317E+04   -0.26665E-02   -0.63517E-02  5760   0.230E-01    0.106E-01
DAV:   2    -0.360431040905E+04   -0.25588E-03   -0.31377E-03  5760   0.442E-02    0.613E-02
DAV:   3    -0.360431040567E+04    0.33761E-05   -0.10951E-04  5632   0.111E-02    0.357E-02
DAV:   4    -0.360431040165E+04    0.40273E-05   -0.13437E-05  7040   0.302E-03    0.245E-02
DAV:   5    -0.360431039828E+04    0.33691E-05   -0.23673E-05  6656   0.327E-03    0.109E-02
DAV:   6    -0.360431039934E+04   -0.10669E-05   -0.17517E-05  6144   0.231E-03    0.441E-03
DAV:   7    -0.360431040044E+04   -0.10985E-05   -0.34472E-06  5248   0.102E-03    0.379E-03
DAV:   8    -0.360431040121E+04   -0.76371E-06   -0.50404E-06  5120   0.624E-04
 augmentation electrons   1811.91996742964     
 soft         electrons  0.000000000000000E+000
 total        electrons   1811.91996742964     
 augmentation electrons -5.581774342312795E-002
 soft         electrons  0.000000000000000E+000
 total        electrons -5.581774342312795E-002
 augmentation electrons   1892.11172626991     
 soft         electrons  0.000000000000000E+000
 total        electrons   1892.11172626991     
 augmentation electrons   1834.59456639791     
 soft         electrons  0.000000000000000E+000
 total        electrons   1834.59456639791     
 augmentation electrons   54.8362729306151     
 soft         electrons   1757.08361885042     
 total        electrons   1811.91989178104     
 augmentation electrons   25.4883264337631     
 soft         electrons   1757.08361885042     
 total        electrons   41.9441573062425     
 translations:           0           1           0
   8 F= -.36422093E+04 E0= -.36422093E+04  d E =-.180290E-01  mag=    42.0000
 curvature:  -0.23 expect dE=-0.628E-02 dE for cont linesearch -0.758E-03
 ZBRENT: increasing intervall
 opt :   0.3896  next Energy= -3642.210271 (dE=-0.190E-01)
 bond charge predicted
       N       E                     dE             d eps       ncg     rms          rms(c)
DAV:   1    -0.360431203791E+04   -0.16375E-02   -0.25364E-01  5248   0.459E-01    0.210E-01
DAV:   2    -0.360431305932E+04   -0.10214E-02   -0.12450E-02  5632   0.882E-02    0.122E-01
DAV:   3    -0.360431304504E+04    0.14283E-04   -0.42756E-04  5632   0.220E-02    0.708E-02
DAV:   4    -0.360431302785E+04    0.17189E-04   -0.47022E-05  7040   0.591E-03    0.485E-02
DAV:   5    -0.360431301192E+04    0.15933E-04   -0.46534E-05  6272   0.606E-03    0.209E-02
DAV:   6    -0.360431301295E+04   -0.10282E-05   -0.30289E-05  5888   0.430E-03    0.590E-03
DAV:   7    -0.360431301386E+04   -0.90865E-06   -0.45868E-06  5248   0.157E-03
 augmentation electrons   1811.91712757649     
 soft         electrons  0.000000000000000E+000
 total        electrons   1811.91712757649     
 augmentation electrons -5.599138262890024E-002
 soft         electrons  0.000000000000000E+000
 total        electrons -5.599138262890024E-002
 augmentation electrons   1893.99788256124     
 soft         electrons  0.000000000000000E+000
 total        electrons   1893.99788256124     
 augmentation electrons   1836.48072268924     
 soft         electrons  0.000000000000000E+000
 total        electrons   1836.48072268924     
 augmentation electrons   54.8318102275732     
 soft         electrons   1757.08524196422     
 total        electrons   1811.91705219180     
 augmentation electrons   25.4876229865201     
 soft         electrons   1757.08524196422     
 total        electrons   41.9439837902189     
 translations:           0           1           0
   9 F= -.36422118E+04 E0= -.36422118E+04  d E =-.204553E-01  mag=    42.0000
 curvature:  -0.29 expect dE=-0.127E-01 dE for cont linesearch -0.689E-04
 trial: gam= 0.55588 g(F)=  0.442E-01 g(S)=  0.000E+00 ort =-0.672E-02 (trialstep = 0.235E+00)
 search vector abs. value=  0.951E-01
 bond charge predicted
       N       E                     dE             d eps       ncg     rms          rms(c)
DAV:   1    -0.360432031005E+04   -0.72971E-02   -0.39911E-01  5760   0.608E-01    0.279E-01
DAV:   2    -0.360432298244E+04   -0.26724E-02   -0.28468E-02  5376   0.108E-01    0.138E-01
DAV:   3    -0.360432314607E+04   -0.16364E-03   -0.92222E-04  5504   0.287E-02    0.767E-02
DAV:   4    -0.360432313063E+04    0.15446E-04   -0.58517E-05  6656   0.609E-03    0.566E-02
DAV:   5    -0.360432311218E+04    0.18449E-04   -0.56813E-05  5888   0.678E-03    0.271E-02
DAV:   6    -0.360432311427E+04   -0.20897E-05   -0.40739E-05  6272   0.468E-03    0.734E-03
DAV:   7    -0.360432311571E+04   -0.14449E-05   -0.72430E-06  5376   0.187E-03    0.484E-03
DAV:   8    -0.360432311660E+04   -0.88908E-06   -0.74193E-06  6144   0.999E-04
 augmentation electrons   1811.91136272657     
 soft         electrons  0.000000000000000E+000
 total        electrons   1811.91136272657     
 augmentation electrons -5.611203515223994E-002
 soft         electrons  0.000000000000000E+000
 total        electrons -5.611203515223994E-002
 augmentation electrons   1897.69821439587     
 soft         electrons  0.000000000000000E+000
 total        electrons   1897.69821439587     
 augmentation electrons   1840.18105452387     
 soft         electrons  0.000000000000000E+000
 total        electrons   1840.18105452387     
 augmentation electrons   54.8231687603588     
 soft         electrons   1757.08811918363     
 total        electrons   1811.91128794399     
 augmentation electrons   25.4868638187018     
 soft         electrons   1757.08811918363     
 total        electrons   41.9438634345818     
 translations:           0           1           0
  10 F= -.36422213E+04 E0= -.36422213E+04  d E =-.953267E-02  mag=    42.0000
 trial-energy change:   -0.009533  1 .order   -0.008080   -0.009535   -0.006625
 step:   0.7714(harm=  0.7714)  dis= 0.01179  next Energy= -3642.227375 (dE=-0.156E-01)
 bond charge predicted
       N       E                     dE             d eps       ncg     rms          rms(c)
DAV:   1    -0.360432062455E+04    0.24912E-02   -0.20660E+00  5760   0.139E+00    0.636E-01
DAV:   2    -0.360433422775E+04   -0.13603E-01   -0.14730E-01  5376   0.245E-01    0.316E-01
DAV:   3    -0.360433530803E+04   -0.10803E-02   -0.46080E-03  5504   0.624E-02    0.175E-01
DAV:   4    -0.360433522721E+04    0.80818E-04   -0.29735E-04  6528   0.138E-02    0.129E-01
DAV:   5    -0.360433513241E+04    0.94805E-04   -0.24701E-04  5888   0.152E-02    0.614E-02
DAV:   6    -0.360433514079E+04   -0.83798E-05   -0.16698E-04  6144   0.106E-02    0.153E-02
DAV:   7    -0.360433514445E+04   -0.36661E-05   -0.26516E-05  5760   0.407E-03    0.905E-03
DAV:   8    -0.360433514618E+04   -0.17244E-05   -0.18296E-05  6528   0.182E-03    0.676E-03
DAV:   9    -0.360433514819E+04   -0.20177E-05   -0.22348E-05  5760   0.162E-03    0.566E-03
DAV:  10    -0.360433515050E+04   -0.23021E-05   -0.29653E-05  5888   0.168E-03    0.516E-03
DAV:  11    -0.360433515255E+04   -0.20491E-05   -0.55236E-05  5632   0.217E-03    0.482E-03
DAV:  12    -0.360433514795E+04    0.45995E-05   -0.24777E-04  6400   0.481E-03    0.514E-03
DAV:  13    -0.360433515003E+04   -0.20884E-05   -0.20054E-04  6016   0.342E-03    0.479E-03
DAV:  14    -0.360433515859E+04   -0.85590E-05   -0.10542E-04  5888   0.259E-03    0.383E-03
DAV:  15    -0.360433516506E+04   -0.64641E-05   -0.38802E-05  5760   0.198E-03    0.277E-03
DAV:  16    -0.360433516700E+04   -0.19425E-05   -0.32210E-05  5376   0.159E-03    0.236E-03
DAV:  17    -0.360433516908E+04   -0.20764E-05   -0.11302E-05  5504   0.127E-03    0.184E-03
DAV:  18    -0.360433517003E+04   -0.95544E-06   -0.72346E-06  5376   0.849E-04
 augmentation electrons   1811.89817336348     
 soft         electrons  0.000000000000000E+000
 total        electrons   1811.89817336348     
 augmentation electrons -5.641115779801625E-002
 soft         electrons  0.000000000000000E+000
 total        electrons -5.641115779801625E-002
 augmentation electrons   1905.82255139928     
 soft         electrons  0.000000000000000E+000
 total        electrons   1905.82255139928     
 augmentation electrons   1848.30539152728     
 soft         electrons  0.000000000000000E+000
 total        electrons   1848.30539152728     
 augmentation electrons   54.8035119019584     
[...]
 total        electrons   1949.99016550345     
 augmentation electrons   54.7615327146846     
 soft         electrons   1757.09397094214     
 total        electrons   1811.85550365682     
 augmentation electrons   25.4941865798227     
 soft         electrons   1757.09397094214     
 total        electrons   41.9484609325383     
 translations:           0           1           0
 116 F= -.36424472E+04 E0= -.36424472E+04  d E =-.737773E-03  mag=    42.0000
 curvature:  -1.00 expect dE=-0.333E-02 dE for cont linesearch -0.639E-08
 trial: gam= 1.22258 g(F)=  0.333E-02 g(S)=  0.000E+00 ort = 0.729E-05 (trialstep = 0.169E+00)
 search vector abs. value=  0.158E-01
 bond charge predicted
       N       E                     dE             d eps       ncg     rms          rms(c)
DAV:   1    -0.360457186629E+04   -0.38525E-03   -0.26520E-02  5504   0.202E-01    0.642E-02
DAV:   2    -0.360457198587E+04   -0.11958E-03   -0.12470E-03  5632   0.285E-02    0.328E-02
DAV:   3    -0.360457198875E+04   -0.28789E-05   -0.40707E-05  5632   0.632E-03    0.190E-02
DAV:   4    -0.360457198691E+04    0.18364E-05   -0.53118E-06  6528   0.242E-03    0.112E-02
DAV:   5    -0.360457198660E+04    0.31204E-06   -0.25634E-06  5120   0.180E-03
 augmentation electrons   1811.85531925476     
 soft         electrons  0.000000000000000E+000
 total        electrons   1811.85531925476     
 augmentation electrons -5.147907886512530E-002
 soft         electrons  0.000000000000000E+000
 total        electrons -5.147907886512530E-002
 augmentation electrons   2008.94871942459     
 soft         electrons  0.000000000000000E+000
 total        electrons   2008.94871942459     
 augmentation electrons   1951.43155955259     
 soft         electrons  0.000000000000000E+000
 total        electrons   1951.43155955259     
 augmentation electrons   54.7614500311499     
 soft         electrons   1757.09383926352     
 total        electrons   1811.85528929467     
 augmentation electrons   25.4942944513625     
 soft         electrons   1757.09383926352     
 total        electrons   41.9485047407412     
 translations:           0           1           0
 117 F= -.36424477E+04 E0= -.36424477E+04  d E =-.506433E-03  mag=    42.0000
 trial-energy change:   -0.000506  1 .order   -0.000484   -0.000564   -0.000405
 step:   0.3324(harm=  0.6000)  dis= 0.00093  next Energy= -3642.447927 (dE=-0.722E-03)
 bond charge predicted
       N       E                     dE             d eps       ncg     rms          rms(c)
DAV:   1    -0.360457221030E+04   -0.22339E-03   -0.24720E-02  5504   0.195E-01    0.620E-02
DAV:   2    -0.360457232168E+04   -0.11137E-03   -0.11610E-03  5632   0.275E-02    0.317E-02
DAV:   3    -0.360457232440E+04   -0.27188E-05   -0.37937E-05  5632   0.610E-03    0.184E-02
DAV:   4    -0.360457232268E+04    0.17126E-05   -0.48926E-06  6528   0.233E-03    0.108E-02
DAV:   5    -0.360457232239E+04    0.29409E-06   -0.23592E-06  5120   0.173E-03
 augmentation electrons   1811.85503216837     
 soft         electrons  0.000000000000000E+000
 total        electrons   1811.85503216837     
 augmentation electrons -5.141273147809707E-002
 soft         electrons  0.000000000000000E+000
 total        electrons -5.141273147809707E-002
 augmentation electrons   2009.74402951374     
 soft         electrons  0.000000000000000E+000
 total        electrons   2009.74402951374     
 augmentation electrons   1952.22686964174     
 soft         electrons  0.000000000000000E+000
 total        electrons   1952.22686964174     
 augmentation electrons   54.7612938945049     
 soft         electrons   1757.09370809185     
 total        electrons   1811.85500198635     
 augmentation electrons   25.4944193122750     
 soft         electrons   1757.09370809185     
 total        electrons   41.9485710637510     
 translations:           0           1           0
 118 F= -.36424481E+04 E0= -.36424481E+04  d E =-.845636E-03  mag=    42.0000
 curvature:  -0.87 expect dE=-0.148E-02 dE for cont linesearch -0.112E-03
 ZBRENT: increasing intervall
 opt :   0.6589  next Energy= -3642.448198 (dE=-0.992E-03)
 bond charge predicted
       N       E                     dE             d eps       ncg     rms          rms(c)
DAV:   1    -0.360457206234E+04    0.26034E-03   -0.98702E-02  5504   0.390E-01    0.124E-01
DAV:   2    -0.360457250756E+04   -0.44522E-03   -0.46333E-03  5632   0.549E-02    0.632E-02
DAV:   3    -0.360457251883E+04   -0.11269E-04   -0.15100E-04  5632   0.121E-02    0.367E-02
DAV:   4    -0.360457251208E+04    0.67529E-05   -0.18876E-05  6528   0.462E-03    0.215E-02
DAV:   5    -0.360457251101E+04    0.10673E-05   -0.85066E-06  5632   0.344E-03    0.581E-03
DAV:   6    -0.360457251115E+04   -0.14403E-06   -0.15703E-06  5632   0.130E-03
 augmentation electrons   1811.85399311024     
 soft         electrons  0.000000000000000E+000
 total        electrons   1811.85399311024     
 augmentation electrons -5.143937626447852E-002
 soft         electrons  0.000000000000000E+000
 total        electrons -5.143937626447852E-002
 augmentation electrons   2009.56225717928     
 soft         electrons  0.000000000000000E+000
 total        electrons   2009.56225717928     
 augmentation electrons   1952.04509730728     
 soft         electrons  0.000000000000000E+000
 total        electrons   1952.04509730728     
 augmentation electrons   54.7605004138667     
 soft         electrons   1757.09346208412     
 total        electrons   1811.85396249798     
 augmentation electrons   25.4945036352665     
 soft         electrons   1757.09346208412     
 total        electrons   41.9485443749952     
 translations:           0           1           0
 119 F= -.36424482E+04 E0= -.36424482E+04  d E =-.104230E-02  mag=    42.0000
 curvature:  -1.15 expect dE=-0.488E-02 dE for cont linesearch -0.153E-04
 trial: gam= 1.44913 g(F)=  0.426E-02 g(S)=  0.000E+00 ort =-0.459E-03 (trialstep = 0.117E+00)
 search vector abs. value=  0.361E-01
 bond charge predicted
       N       E                     dE             d eps       ncg     rms          rms(c)
DAV:   1    -0.360457275863E+04   -0.24762E-03   -0.28159E-02  5504   0.207E-01    0.662E-02
DAV:   2    -0.360457288760E+04   -0.12897E-03   -0.13328E-03  5632   0.290E-02    0.337E-02
DAV:   3    -0.360457289175E+04   -0.41537E-05   -0.42848E-05  5632   0.642E-03    0.195E-02
DAV:   4    -0.360457288992E+04    0.18329E-05   -0.54240E-06  6528   0.244E-03    0.114E-02
DAV:   5    -0.360457288966E+04    0.25735E-06   -0.27481E-06  5120   0.186E-03
 augmentation electrons   1811.85364122358     
 soft         electrons  0.000000000000000E+000
 total        electrons   1811.85364122358     
 augmentation electrons -5.142498039743008E-002
 soft         electrons  0.000000000000000E+000
 total        electrons -5.142498039743008E-002
 augmentation electrons   2009.58808650087     
 soft         electrons  0.000000000000000E+000
 total        electrons   2009.58808650087     
 augmentation electrons   1952.07092662887     
 soft         electrons  0.000000000000000E+000
 total        electrons   1952.07092662887     
 augmentation electrons   54.7602741373662     
 soft         electrons   1757.09333625514     
 total        electrons   1811.85361039250     
 augmentation electrons   25.4945513187023     
 soft         electrons   1757.09333625514     
 total        electrons   41.9485587641639     
 translations:           0           1           0
 120 F= -.36424487E+04 E0= -.36424487E+04  d E =-.402375E-03  mag=    42.0000
 ZBRENT: can't locate minimum, use default step
 trial-energy change:   -0.000402  1 .order   -0.000369   -0.000420   -0.000317
 step:   0.4674(harm=  0.4778)  dis= 0.00214  next Energy= -3642.449106 (dE=-0.859E-03)
 bond charge predicted
       N       E                     dE             d eps       ncg     rms          rms(c)
DAV:   1    -0.360457225599E+04    0.63392E-03   -0.25296E-01  5504   0.621E-01    0.198E-01
DAV:   2    -0.360457341234E+04   -0.11563E-02   -0.11959E-02  5632   0.868E-02    0.101E-01
DAV:   3    -0.360457345180E+04   -0.39465E-04   -0.38762E-04  5632   0.193E-02    0.586E-02
DAV:   4    -0.360457343610E+04    0.15707E-04   -0.45746E-05  6528   0.715E-03    0.347E-02
DAV:   5    -0.360457343369E+04    0.24084E-05   -0.20960E-05  5632   0.549E-03    0.928E-03
DAV:   6    -0.360457343415E+04   -0.46125E-06   -0.41558E-06  6272   0.208E-03
 augmentation electrons   1811.85266091348     
 soft         electrons  0.000000000000000E+000
 total        electrons   1811.85266091348     
 augmentation electrons -5.144705385559670E-002
 soft         electrons  0.000000000000000E+000
 total        electrons -5.144705385559670E-002
 augmentation electrons   2009.21337208916     
 soft         electrons  0.000000000000000E+000
 total        electrons   2009.21337208916     
 augmentation electrons   1951.69621221716     
 soft         electrons  0.000000000000000E+000
 total        electrons   1951.69621221716     
 augmentation electrons   54.7596015607728     
 soft         electrons   1757.09302790260     
 total        electrons   1811.85262946337     
 augmentation electrons   25.4946345418371     
 soft         electrons   1757.09302790260     
 total        electrons   41.9485366829743     
 translations:           0           1           0
 121 F= -.36424493E+04 E0= -.36424493E+04  d E =-.101996E-02  mag=    42.0000
 curvature:  -2.40 expect dE=-0.102E-01 dE for cont linesearch -0.768E-05
 trial: gam= 0.54570 g(F)=  0.427E-02 g(S)=  0.000E+00 ort = 0.340E-03 (trialstep = 0.187E+00)
 search vector abs. value=  0.154E-01
 bond charge predicted
       N       E                     dE             d eps       ncg     rms          rms(c)
DAV:   1    -0.360457394941E+04   -0.51572E-03   -0.34499E-02  5504   0.220E-01    0.651E-02
DAV:   2    -0.360457407240E+04   -0.12299E-03   -0.13680E-03  5632   0.312E-02    0.356E-02
DAV:   3    -0.360457407410E+04   -0.16953E-05   -0.45262E-05  5632   0.699E-03    0.214E-02
DAV:   4    -0.360457407114E+04    0.29546E-05   -0.86834E-06  6400   0.321E-03    0.113E-02
DAV:   5    -0.360457407121E+04   -0.67099E-07   -0.41002E-06  5632   0.203E-03
 augmentation electrons   1811.85333108962     
 soft         electrons  0.000000000000000E+000
 total        electrons   1811.85333108962     
 augmentation electrons -5.137512140245538E-002
 soft         electrons  0.000000000000000E+000
 total        electrons -5.137512140245538E-002
 augmentation electrons   2009.98730380772     
 soft         electrons  0.000000000000000E+000
 total        electrons   2009.98730380772     
 augmentation electrons   1952.47014393572     
 soft         electrons  0.000000000000000E+000
 total        electrons   1952.47014393572     
 augmentation electrons   54.7603571497303     
 soft         electrons   1757.09294232561     
 total        electrons   1811.85329947534     
 augmentation electrons   25.4946886207466     
 soft         electrons   1757.09294232561     
 total        electrons   41.9486086412315     
 translations:           0           1           0
 122 F= -.36424499E+04 E0= -.36424499E+04  d E =-.665189E-03  mag=    42.0000
 trial-energy change:   -0.000665  1 .order   -0.000653   -0.000832   -0.000473
 step:   0.3621(harm=  0.4329)  dis= 0.00094  next Energy= -3642.450165 (dE=-0.897E-03)
 bond charge predicted
       N       E                     dE             d eps       ncg     rms          rms(c)
DAV:   1    -0.360457423341E+04   -0.16227E-03   -0.30325E-02  5504   0.206E-01    0.609E-02
DAV:   2    -0.360457434128E+04   -0.10787E-03   -0.12020E-03  5632   0.293E-02    0.334E-02
DAV:   3    -0.360457434276E+04   -0.14723E-05   -0.40164E-05  5632   0.662E-03    0.202E-02
DAV:   4    -0.360457434022E+04    0.25379E-05   -0.75746E-06  6400   0.298E-03    0.109E-02
DAV:   5    -0.360457434024E+04   -0.26281E-07   -0.36339E-06  5760   0.190E-03
 augmentation electrons   1811.85398805694     
 soft         electrons  0.000000000000000E+000
 total        electrons   1811.85398805694     
 augmentation electrons -5.136409485335107E-002
 soft         electrons  0.000000000000000E+000
 total        electrons -5.136409485335107E-002
 augmentation electrons   2010.68077255762     
 soft         electrons  0.000000000000000E+000
 total        electrons   2010.68077255762     
 augmentation electrons   1953.16361268562     
 soft         electrons  0.000000000000000E+000
 total        electrons   1953.16361268562     
 augmentation electrons   54.7610812117986     
 soft         electrons   1757.09287508252     
 total        electrons   1811.85395629432     
 augmentation electrons   25.4946841817162     
 soft         electrons   1757.09287508252     
 total        electrons   41.9486196933943     
 translations:           0           1           0
 123 F= -.36424502E+04 E0= -.36424502E+04  d E =-.959719E-03  mag=    42.0000
 curvature:  -0.69 expect dE=-0.140E-02 dE for cont linesearch -0.224E-04
 ZBRENT: extrapolating
 opt :   0.4304  next Energy= -3642.450252 (dE=-0.984E-03)
 bond charge predicted
       N       E                     dE             d eps       ncg     rms          rms(c)
DAV:   1    -0.360457434508E+04   -0.48636E-05   -0.46339E-03  6016   0.804E-02    0.239E-02
DAV:   2    -0.360457436170E+04   -0.16616E-04   -0.18496E-04  5632   0.115E-02    0.132E-02
DAV:   3    -0.360457436190E+04   -0.20504E-06   -0.64030E-06  5632   0.266E-03
 augmentation electrons   1811.85421256018     
 soft         electrons  0.000000000000000E+000
 total        electrons   1811.85421256018     
 augmentation electrons -5.136007775424263E-002
 soft         electrons  0.000000000000000E+000
 total        electrons -5.136007775424263E-002
 augmentation electrons   2010.94215944754     
 soft         electrons  0.000000000000000E+000
 total        electrons   2010.94215944754     
 augmentation electrons   1953.42499957554     
 soft         electrons  0.000000000000000E+000
 total        electrons   1953.42499957554     
 augmentation electrons   54.7613300761503     
 soft         electrons   1757.09285066498     
 total        electrons   1811.85418074113     
 augmentation electrons   25.4946762932482     
 soft         electrons   1757.09285066498     
 total        electrons   41.9486237208305     
 translations:           0           1           0
 124 F= -.36424503E+04 E0= -.36424503E+04  d E =-.986038E-03  mag=    42.0000
 curvature:  -0.74 expect dE=-0.204E-02 dE for cont linesearch -0.361E-06
 trial: gam= 0.71290 g(F)=  0.276E-02 g(S)=  0.000E+00 ort = 0.866E-04 (trialstep = 0.236E+00)
 search vector abs. value=  0.107E-01
 bond charge predicted
       N       E                     dE             d eps       ncg     rms          rms(c)
DAV:   1    -0.360457467977E+04   -0.31807E-03   -0.36250E-02  5632   0.232E-01    0.679E-02
DAV:   2    -0.360457482093E+04   -0.14116E-03   -0.15173E-03  5632   0.319E-02    0.358E-02
DAV:   3    -0.360457482779E+04   -0.68534E-05   -0.52757E-05  5632   0.744E-03    0.214E-02
DAV:   4    -0.360457482589E+04    0.19008E-05   -0.74304E-06  6528   0.291E-03    0.120E-02
DAV:   5    -0.360457482599E+04   -0.10111E-06   -0.33460E-06  5632   0.196E-03
 augmentation electrons   1811.85511820060     
 soft         electrons  0.000000000000000E+000
 total        electrons   1811.85511820060     
 augmentation electrons -5.129006751740974E-002
 soft         electrons  0.000000000000000E+000
 total        electrons -5.129006751740974E-002
 augmentation electrons   2012.52576118645     
 soft         electrons  0.000000000000000E+000
 total        electrons   2012.52576118645     
 augmentation electrons   1955.00860131445     
 soft         electrons  0.000000000000000E+000
 total        electrons   1955.00860131445     
 augmentation electrons   54.7622707012342     
 soft         electrons   1757.09281563975     
 total        electrons   1811.85508634098     
 augmentation electrons   25.4946769599624     
 soft         electrons   1757.09281563975     
 total        electrons   41.9486937788496     
 translations:           0           1           0
 125 F= -.36424508E+04 E0= -.36424508E+04  d E =-.498233E-03  mag=    42.0000
 trial-energy change:   -0.000498  1 .order   -0.000527   -0.000665   -0.000389
 step:   0.5680(harm=  0.5680)  dis= 0.00117  next Energy= -3642.451055 (dE=-0.801E-03)
 bond charge predicted
       N       E                     dE             d eps       ncg     rms          rms(c)
DAV:   1    -0.360457475806E+04    0.67830E-04   -0.72879E-02  5632   0.328E-01    0.973E-02
DAV:   2    -0.360457503853E+04   -0.28047E-03   -0.30506E-03  5632   0.455E-02    0.512E-02
DAV:   3    -0.360457505013E+04   -0.11604E-04   -0.10548E-04  5632   0.107E-02    0.303E-02
DAV:   4    -0.360457504567E+04    0.44646E-05   -0.15900E-05  6528   0.430E-03    0.172E-02
DAV:   5    -0.360457504556E+04    0.11027E-06   -0.60880E-06  5632   0.276E-03
 augmentation electrons   1811.85645168608     
 soft         electrons  0.000000000000000E+000
 total        electrons   1811.85645168608     
 augmentation electrons -5.119043068466318E-002
 soft         electrons  0.000000000000000E+000
 total        electrons -5.119043068466318E-002
 augmentation electrons   2014.67828720014     
 soft         electrons  0.000000000000000E+000
 total        electrons   2014.67828720014     
 augmentation electrons   1957.16112732814     
 soft         electrons  0.000000000000000E+000
 total        electrons   1957.16112732814     
 augmentation electrons   54.7636526865936     
 soft         electrons   1757.09276709128     
 total        electrons   1811.85641977787     
 augmentation electrons   25.4946710401665     
 soft         electrons   1757.09276709128     
 total        electrons   41.9487934859693     
 translations:           0           1           0
 126 F= -.36424510E+04 E0= -.36424510E+04  d E =-.759266E-03  mag=    42.0000
 curvature:  -1.08 expect dE=-0.301E-02 dE for cont linesearch -0.155E-05
 trial: gam= 0.89374 g(F)=  0.279E-02 g(S)=  0.000E+00 ort = 0.124E-03 (trialstep = 0.280E+00)
 search vector abs. value=  0.116E-01
 bond charge predicted
       N       E                     dE             d eps       ncg     rms          rms(c)
DAV:   1    -0.360457537210E+04   -0.32643E-03   -0.56188E-02  5632   0.297E-01    0.907E-02
DAV:   2    -0.360457561468E+04   -0.24258E-03   -0.26283E-03  5632   0.419E-02    0.474E-02
DAV:   3    -0.360457562643E+04   -0.11754E-04   -0.89760E-05  5632   0.978E-03    0.277E-02
DAV:   4    -0.360457562225E+04    0.41813E-05   -0.12645E-05  6528   0.382E-03    0.158E-02
DAV:   5    -0.360457562198E+04    0.27470E-06   -0.57458E-06  5760   0.267E-03
 augmentation electrons   1811.85722261227     
 soft         electrons  0.000000000000000E+000
 total        electrons   1811.85722261227     
 augmentation electrons -5.106532837513938E-002
 soft         electrons  0.000000000000000E+000
 total        electrons -5.106532837513938E-002
 augmentation electrons   2017.09737891747     
 soft         electrons  0.000000000000000E+000
 total        electrons   2017.09737891747     
 augmentation electrons   1959.58021904547     
 soft         electrons  0.000000000000000E+000
 total        electrons   1959.58021904547     
 augmentation electrons   54.7643877435135     
 soft         electrons   1757.09280299593     
 total        electrons   1811.85719073944     
 augmentation electrons   25.4947251445820     
 soft         electrons   1757.09280299593     
 total        electrons   41.9489186492047     
 translations:           0           1           0
 127 F= -.36424516E+04 E0= -.36424516E+04  d E =-.537723E-03  mag=    42.0000
 trial-energy change:   -0.000538  1 .order   -0.000563   -0.000812   -0.000315
 step:   0.4563(harm=  0.4563)  dis= 0.00095  next Energy= -3642.451676 (dE=-0.663E-03)
 reached required accuracy - stopping structural energy minimisation
 writing wavefunctions
