 ----------------------------------------------------
    OOO  PPPP  EEEEE N   N M   M PPPP
   O   O P   P E     NN  N MM MM P   P
   O   O PPPP  EEEEE N N N M M M PPPP   -- VERSION
   O   O P     E     N  NN M   M P
    OOO  P     EEEEE N   N M   M P
 ----------------------------------------------------
 running  512 mpi-ranks, with    1 threads/rank
 distrk:  each k-point on  512 cores,    1 groups
 distr:  one band on    4 cores,  128 groups
 vasp.6.3.2 27Jun22 (build Nov 12 2024 19:13:04) complex                        
  
 POSCAR found type information on POSCAR MnBrN C H 
 POSCAR found :  5 types and     636 ions
 scaLAPACK will be used
 LDA part: xc-table for Pade appr. of Perdew
 POSCAR, INCAR and KPOINTS ok, starting setup
 FFT: planning ... GRIDC
 FFT: planning ... GRID_SOFT
 FFT: planning ... GRID
 WAVECAR not read
 entering main loop
       N       E                     dE             d eps       ncg     rms          rms(c)
DAV:   1     0.989147104144E+04    0.98915E+04   -0.80692E+05  5376   0.120E+03
DAV:   2    -0.259750429222E+04   -0.12489E+05   -0.12050E+05  6272   0.260E+02
DAV:   3    -0.384056025434E+04   -0.12431E+04   -0.12325E+04  6400   0.875E+01
DAV:   4    -0.387361109306E+04   -0.33051E+02   -0.32854E+02  6656   0.162E+01
DAV:   5    -0.387463753695E+04   -0.10264E+01   -0.10253E+01  6656   0.271E+00    0.134E+02
DAV:   6    -0.396283048958E+04   -0.88193E+02   -0.30804E+03  6400   0.372E+01    0.281E+02
DAV:   7    -0.361199548243E+04    0.35084E+03   -0.57129E+02  6400   0.307E+01    0.991E+01
DAV:   8    -0.359934950476E+04    0.12646E+02   -0.21979E+02  6528   0.193E+01    0.618E+01
DAV:   9    -0.360638170506E+04   -0.70322E+01   -0.15483E+02  6528   0.114E+01    0.467E+01
DAV:  10    -0.359725205506E+04    0.91297E+01   -0.10985E+02  6528   0.101E+01    0.413E+01
DAV:  11    -0.359202775247E+04    0.52243E+01   -0.62618E+01  6144   0.682E+00    0.256E+01
DAV:  12    -0.360124667074E+04   -0.92189E+01   -0.60763E+00  6272   0.260E+00    0.166E+01
DAV:  13    -0.360239088310E+04   -0.11442E+01   -0.19481E+00  6272   0.197E+00    0.124E+01
DAV:  14    -0.360243502031E+04   -0.44137E-01   -0.75040E-01  6272   0.119E+00    0.942E+00
DAV:  15    -0.360239058642E+04    0.44434E-01   -0.30029E-01  6144   0.786E-01    0.653E+00
DAV:  16    -0.360233837133E+04    0.52215E-01   -0.18220E-01  6400   0.588E-01    0.413E+00
DAV:  17    -0.360230072537E+04    0.37646E-01   -0.77614E-02  6400   0.307E-01    0.344E+00
DAV:  18    -0.360228150849E+04    0.19217E-01   -0.18212E-02  6272   0.212E-01    0.357E+00
DAV:  19    -0.360224549506E+04    0.36013E-01   -0.15326E-02  6656   0.225E-01    0.280E+00
DAV:  20    -0.360220121396E+04    0.44281E-01   -0.42975E-02  6400   0.373E-01    0.161E+00
DAV:  21    -0.360218103201E+04    0.20182E-01   -0.50092E-02  7040   0.306E-01    0.784E-01
DAV:  22    -0.360217495513E+04    0.60769E-02   -0.24369E-02  6784   0.222E-01    0.224E-01
DAV:  23    -0.360217417924E+04    0.77589E-03   -0.91832E-03  6912   0.112E-01    0.183E-01
DAV:  24    -0.360217411864E+04    0.60603E-04   -0.19285E-03  6400   0.471E-02    0.200E-01
DAV:  25    -0.360217411549E+04    0.31486E-05   -0.36853E-04  6656   0.266E-02    0.181E-01
DAV:  26    -0.360217412399E+04   -0.85010E-05   -0.15214E-04  6400   0.264E-02    0.183E-01
DAV:  27    -0.360217424598E+04   -0.12199E-03   -0.26890E-04  6400   0.264E-02    0.239E-01
DAV:  28    -0.360217455956E+04   -0.31358E-03   -0.29157E-04  6784   0.341E-02    0.300E-01
DAV:  29    -0.360217464253E+04   -0.82970E-04   -0.26206E-04  6144   0.227E-02    0.271E-01
DAV:  30    -0.360217435053E+04    0.29200E-03   -0.25933E-04  6400   0.324E-02    0.178E-01
DAV:  31    -0.360217407394E+04    0.27659E-03   -0.54346E-04  6656   0.371E-02    0.825E-02
DAV:  32    -0.360217401296E+04    0.60976E-04   -0.38172E-04  6784   0.207E-02    0.494E-02
DAV:  33    -0.360217398711E+04    0.25848E-04   -0.91287E-05  6272   0.146E-02    0.573E-02
DAV:  34    -0.360217390230E+04    0.84816E-04   -0.11327E-04  6656   0.253E-02    0.275E-02
DAV:  35    -0.360217388924E+04    0.13062E-04   -0.10793E-04  6528   0.149E-02    0.194E-02
DAV:  36    -0.360217388816E+04    0.10794E-05   -0.57333E-05  6272   0.846E-03    0.145E-02
DAV:  37    -0.360217388815E+04    0.96916E-08   -0.12809E-05  6400   0.524E-03    0.169E-02
DAV:  38    -0.360217388910E+04   -0.95682E-06   -0.61743E-06  6400   0.362E-03
 augmentation electrons   1811.87849352223     
 soft         electrons  0.000000000000000E+000
 total        electrons   1811.87849352223     
 augmentation electrons -8.180128786136229E-002
 soft         electrons  0.000000000000000E+000
 total        electrons -8.180128786136229E-002
 augmentation electrons   1923.93918884376     
 soft         electrons  0.000000000000000E+000
 total        electrons   1923.93918884376     
 augmentation electrons   1866.42202897176     
 soft         electrons  0.000000000000000E+000
 total        electrons   1866.42202897176     
 augmentation electrons   54.7917102236398     
 soft         electrons   1757.08669712176     
 total        electrons   1811.87840734540     
 augmentation electrons   37.6503458931562     
 soft         electrons   1757.08669712176     
 total        electrons   59.9181606258855     
 translations:           0           1           0
   1 F= -.36400666E+04 E0= -.36400666E+04  d E =-.364007E+04  mag=    60.0000
 curvature:   0.00 expect dE= 0.000E+00 dE for cont linesearch  0.000E+00
 trial: gam= 0.00000 g(F)=  0.412E+00 g(S)=  0.000E+00 ort = 0.000E+00 (trialstep = 0.100E+01)
 search vector abs. value=  0.412E+00
 bond charge predicted
       N       E                     dE             d eps       ncg     rms          rms(c)
DAV:   1    -0.360236622500E+04   -0.19234E+00   -0.28155E+01  5120   0.285E+00    0.273E+00
DAV:   2    -0.360247273890E+04   -0.10651E+00   -0.12647E+00  6144   0.685E-01    0.166E+00
DAV:   3    -0.360246904650E+04    0.36924E-02   -0.28264E-02  6400   0.127E-01    0.878E-01
DAV:   4    -0.360246707625E+04    0.19703E-02   -0.30998E-03  6528   0.364E-02    0.583E-01
DAV:   5    -0.360246545290E+04    0.16234E-02   -0.77867E-03  6656   0.626E-02    0.197E-01
DAV:   6    -0.360246553666E+04   -0.83765E-04   -0.15153E-03  6272   0.288E-02    0.559E-02
DAV:   7    -0.360246552752E+04    0.91447E-05   -0.66178E-05  6400   0.651E-03    0.338E-02
DAV:   8    -0.360246552254E+04    0.49718E-05   -0.85636E-06  6528   0.339E-03    0.185E-02
DAV:   9    -0.360246552084E+04    0.17023E-05   -0.81724E-06  6016   0.294E-03    0.762E-03
DAV:  10    -0.360246552059E+04    0.24751E-06   -0.34078E-06  6400   0.165E-03
 augmentation electrons   1811.88381356713     
 soft         electrons  0.000000000000000E+000
 total        electrons   1811.88381356713     
 augmentation electrons -8.172894965463720E-002
 soft         electrons  0.000000000000000E+000
 total        electrons -8.172894965463720E-002
 augmentation electrons   1959.15608454854     
 soft         electrons  0.000000000000000E+000
 total        electrons   1959.15608454854     
 augmentation electrons   1901.63892467654     
 soft         electrons  0.000000000000000E+000
 total        electrons   1901.63892467654     
 augmentation electrons   54.8196800184359     
 soft         electrons   1757.06406036929     
 total        electrons   1811.88374038773     
 augmentation electrons   37.7286784186109     
 soft         electrons   1757.06406036929     
 total        electrons   59.9182341067397     
 translations:           0           1           0
   2 F= -.36403775E+04 E0= -.36403775E+04  d E =-.310884E+00  mag=    60.0000
 trial-energy change:   -0.310884  1 .order   -0.308755   -0.412199   -0.205310
 step:   1.8887(harm=  1.9924)  dis= 0.05259  next Energy= -3640.470189 (dE=-0.404E+00)
 bond charge predicted
       N       E                     dE             d eps       ncg     rms          rms(c)
DAV:   1    -0.360249007304E+04   -0.24552E-01   -0.22162E+01  5120   0.253E+00    0.237E+00
DAV:   2    -0.360257274165E+04   -0.82669E-01   -0.97879E-01  6144   0.609E-01    0.139E+00
DAV:   3    -0.360256981879E+04    0.29229E-02   -0.21894E-02  6400   0.112E-01    0.758E-01
DAV:   4    -0.360256838884E+04    0.14299E-02   -0.22334E-03  6528   0.314E-02    0.496E-01
DAV:   5    -0.360256707962E+04    0.13092E-02   -0.55960E-03  6528   0.537E-02    0.178E-01
DAV:   6    -0.360256714865E+04   -0.69028E-04   -0.10940E-03  6144   0.247E-02    0.454E-02
DAV:   7    -0.360256714540E+04    0.32510E-05   -0.46307E-05  6272   0.561E-03    0.264E-02
DAV:   8    -0.360256714211E+04    0.32870E-05   -0.58402E-06  6144   0.281E-03    0.151E-02
DAV:   9    -0.360256714156E+04    0.54839E-06   -0.55131E-06  6016   0.237E-03
 augmentation electrons   1811.92743591689     
 soft         electrons  0.000000000000000E+000
 total        electrons   1811.92743591689     
 augmentation electrons -8.161256841371321E-002
 soft         electrons  0.000000000000000E+000
 total        electrons -8.161256841371321E-002
 augmentation electrons   2010.53326508555     
 soft         electrons  0.000000000000000E+000
 total        electrons   2010.53326508555     
 augmentation electrons   1953.01610521355     
 soft         electrons  0.000000000000000E+000
 total        electrons   1953.01610521355     
 augmentation electrons   54.8819731784969     
 soft         electrons   1757.04538850143     
 total        electrons   1811.92736167993     
 augmentation electrons   37.7935107492423     
 soft         electrons   1757.04538850143     
 total        electrons   59.9183516432005     
 translations:           0           1           0
   3 F= -.36404926E+04 E0= -.36404926E+04  d E =-.426054E+00  mag=    60.0000
 curvature:  -0.99 expect dE=-0.425E+00 dE for cont linesearch -0.551E-02
 trial: gam= 0.93034 g(F)=  0.432E+00 g(S)=  0.000E+00 ort = 0.480E-01 (trialstep = 0.553E+00)
 search vector abs. value=  0.878E+00
 bond charge predicted
       N       E                     dE             d eps       ncg     rms          rms(c)
DAV:   1    -0.360255282307E+04    0.14319E-01   -0.22333E+01  5248   0.377E+00    0.199E+00
DAV:   2    -0.360261996132E+04   -0.67138E-01   -0.88330E-01  6016   0.715E-01    0.121E+00
DAV:   3    -0.360261471531E+04    0.52460E-02   -0.24542E-02  6400   0.144E-01    0.714E-01
DAV:   4    -0.360261254143E+04    0.21739E-02   -0.32985E-03  6656   0.486E-02    0.470E-01
DAV:   5    -0.360261072121E+04    0.18202E-02   -0.44020E-03  6400   0.637E-02    0.159E-01
DAV:   6    -0.360261080568E+04   -0.84473E-04   -0.13526E-03  6144   0.294E-02    0.371E-02
DAV:   7    -0.360261079772E+04    0.79572E-05   -0.70222E-05  6144   0.744E-03    0.224E-02
DAV:   8    -0.360261079201E+04    0.57163E-05   -0.10804E-05  6400   0.353E-03    0.107E-02
DAV:   9    -0.360261079019E+04    0.18174E-05   -0.46988E-06  6400   0.251E-03    0.499E-03
DAV:  10    -0.360261078978E+04    0.41284E-06   -0.20283E-06  5888   0.146E-03
 augmentation electrons   1812.00419078622     
 soft         electrons  0.000000000000000E+000
 total        electrons   1812.00419078622     
 augmentation electrons -8.146944363964793E-002
 soft         electrons  0.000000000000000E+000
 total        electrons -8.146944363964793E-002
 augmentation electrons   2092.29391796375     
 soft         electrons  0.000000000000000E+000
 total        electrons   2092.29391796375     
 augmentation electrons   2034.77675809175     
 soft         electrons  0.000000000000000E+000
 total        electrons   2034.77675809175     
 augmentation electrons   54.9612235290286     
 soft         electrons   1757.04288803688     
 total        electrons   1812.00411156591     
 augmentation electrons   37.8387152083938     
 soft         electrons   1757.04288803688     
 total        electrons   59.9184957981460     
 translations:           0           1           0
   4 F= -.36405488E+04 E0= -.36405488E+04  d E =-.561500E-01  mag=    60.0000
 trial-energy change:   -0.056150  1 .order   -0.044352   -0.263404    0.174700
 step:   0.3532(harm=  0.3326)  dis= 0.01337  next Energy= -3640.579799 (dE=-0.872E-01)
 bond charge predicted
       N       E                     dE             d eps       ncg     rms          rms(c)
DAV:   1    -0.360263770417E+04   -0.26914E-01   -0.29221E+00  5504   0.137E+00    0.751E-01
DAV:   2    -0.360264637973E+04   -0.86756E-02   -0.11455E-01  6016   0.261E-01    0.449E-01
DAV:   3    -0.360264570871E+04    0.67102E-03   -0.31930E-03  6528   0.527E-02    0.260E-01
DAV:   4    -0.360264542971E+04    0.27900E-03   -0.43262E-04  6656   0.176E-02    0.173E-01
DAV:   5    -0.360264520175E+04    0.22796E-03   -0.58317E-04  6528   0.235E-02    0.606E-02
DAV:   6    -0.360264521828E+04   -0.16537E-04   -0.19016E-04  6144   0.109E-02    0.136E-02
DAV:   7    -0.360264521690E+04    0.13863E-05   -0.11018E-05  6144   0.293E-03    0.801E-03
DAV:   8    -0.360264521596E+04    0.94001E-06   -0.16247E-06  5248   0.143E-03
 augmentation electrons   1811.97582022627     
 soft         electrons  0.000000000000000E+000
 total        electrons   1811.97582022627     
 augmentation electrons -8.152113714238154E-002
 soft         electrons  0.000000000000000E+000
 total        electrons -8.152113714238154E-002
 augmentation electrons   2057.30920782134     
 soft         electrons  0.000000000000000E+000
 total        electrons   2057.30920782134     
 augmentation electrons   1999.79204794935     
 soft         electrons  0.000000000000000E+000
 total        electrons   1999.79204794935     
 augmentation electrons   54.9317852510710     
 soft         electrons   1757.04395717326     
 total        electrons   1811.97574242433     
 augmentation electrons   37.8225596476039     
 soft         electrons   1757.04395717326     
 total        electrons   59.9184437178012     
 translations:           0           1           0
   5 F= -.36405788E+04 E0= -.36405788E+04  d E =-.862107E-01  mag=    60.0000
 curvature:  -0.30 expect dE=-0.349E-01 dE for cont linesearch -0.330E-03
 ZBRENT: interpolating
 opt :   0.3317  next Energy= -3640.579175 (dE=-0.865E-01)
 bond charge predicted
       N       E                     dE             d eps       ncg     rms          rms(c)
DAV:   1    -0.360264549704E+04   -0.28014E-03   -0.33846E-02  5760   0.148E-01    0.788E-02
DAV:   2    -0.360264560219E+04   -0.10515E-03   -0.13547E-03  6144   0.279E-02    0.467E-02
DAV:   3    -0.360264559527E+04    0.69200E-05   -0.37625E-05  6400   0.576E-03    0.285E-02
DAV:   4    -0.360264559274E+04    0.25306E-05   -0.50538E-06  6656   0.191E-03    0.190E-02
DAV:   5    -0.360264559172E+04    0.10207E-05   -0.68286E-06  5888   0.250E-03    0.640E-03
DAV:   6    -0.360264559233E+04   -0.60748E-06   -0.20858E-06  5504   0.117E-03
 augmentation electrons   1811.97274790066     
 soft         electrons  0.000000000000000E+000
 total        electrons   1811.97274790066     
 augmentation electrons -8.152080745572329E-002
 soft         electrons  0.000000000000000E+000
 total        electrons -8.152080745572329E-002
 augmentation electrons   2053.99190137300     
 soft         electrons  0.000000000000000E+000
 total        electrons   2053.99190137300     
 augmentation electrons   1996.47474150100     
 soft         electrons  0.000000000000000E+000
 total        electrons   1996.47474150100     
 augmentation electrons   54.9285929851792     
 soft         electrons   1757.04407729999     
 total        electrons   1811.97267028517     
 augmentation electrons   37.8208321967376     
 soft         electrons   1757.04407729999     
 total        electrons   59.9184440067726     
 translations:           0           1           0
   6 F= -.36405788E+04 E0= -.36405788E+04  d E =-.861276E-01  mag=    60.0000
 curvature:  -0.31 expect dE=-0.283E-01 dE for cont linesearch -0.103E-06
 trial: gam= 0.34625 g(F)=  0.926E-01 g(S)=  0.000E+00 ort =-0.545E-03 (trialstep = 0.509E+00)
 search vector abs. value=  0.197E+00
 bond charge predicted
       N       E                     dE             d eps       ncg     rms          rms(c)
DAV:   1    -0.360265256306E+04   -0.69713E-02   -0.39761E+00  5248   0.166E+00    0.893E-01
DAV:   2    -0.360266911593E+04   -0.16553E-01   -0.19070E-01  6144   0.316E-01    0.524E-01
DAV:   3    -0.360266857183E+04    0.54410E-03   -0.49682E-03  6400   0.637E-02    0.292E-01
DAV:   4    -0.360266828834E+04    0.28350E-03   -0.54909E-04  6400   0.198E-02    0.197E-01
DAV:   5    -0.360266800695E+04    0.28138E-03   -0.59456E-04  6400   0.229E-02    0.797E-02
DAV:   6    -0.360266801105E+04   -0.40929E-05   -0.22561E-04  6272   0.122E-02    0.156E-02
DAV:   7    -0.360266800947E+04    0.15738E-05   -0.18017E-05  6272   0.372E-03    0.949E-03
DAV:   8    -0.360266800833E+04    0.11375E-05   -0.23725E-06  5248   0.167E-03    0.441E-03
DAV:   9    -0.360266800810E+04    0.22913E-06   -0.83614E-07  5120   0.118E-03
 augmentation electrons   1812.01893125375     
 soft         electrons  0.000000000000000E+000
 total        electrons   1812.01893125375     
 augmentation electrons -8.179187164314076E-002
 soft         electrons  0.000000000000000E+000
 total        electrons -8.179187164314076E-002
 augmentation electrons   2118.20504457927     
 soft         electrons  0.000000000000000E+000
 total        electrons   2118.20504457927     
 augmentation electrons   2060.68788470727     
 soft         electrons  0.000000000000000E+000
 total        electrons   2060.68788470727     
 augmentation electrons   54.9724569659341     
 soft         electrons   1757.04639695114     
 total        electrons   1812.01885391707     
 augmentation electrons   37.8389182047553     
 soft         electrons   1757.04639695114     
 total        electrons   59.9181735499590     
 translations:           0           1           0
   7 F= -.36406058E+04 E0= -.36406058E+04  d E =-.270511E-01  mag=    60.0000
 trial-energy change:   -0.027051  1 .order   -0.019556   -0.047039    0.007927
 step:   0.4669(harm=  0.4355)  dis= 0.00958  next Energy= -3640.606133 (dE=-0.274E-01)
 bond charge predicted
       N       E                     dE             d eps       ncg     rms          rms(c)
DAV:   1    -0.360266813539E+04   -0.12705E-03   -0.27100E-02  5760   0.137E-01    0.757E-02
DAV:   2    -0.360266824980E+04   -0.11442E-03   -0.12949E-03  6144   0.264E-02    0.448E-02
DAV:   3    -0.360266824735E+04    0.24553E-05   -0.34336E-05  6528   0.533E-03    0.240E-02
DAV:   4    -0.360266824592E+04    0.14286E-05   -0.39541E-06  5888   0.171E-03    0.160E-02
DAV:   5    -0.360266824550E+04    0.41767E-06   -0.41113E-06  5376   0.209E-03
 augmentation electrons   1812.01476289439     
 soft         electrons  0.000000000000000E+000
 total        electrons   1812.01476289439     
 augmentation electrons -8.164241784612465E-002
 soft         electrons  0.000000000000000E+000
 total        electrons -8.164241784612465E-002
 augmentation electrons   2111.93919197968     
 soft         electrons  0.000000000000000E+000
 total        electrons   2111.93919197968     
 augmentation electrons   2054.42203210768     
 soft         electrons  0.000000000000000E+000
 total        electrons   2054.42203210768     
 augmentation electrons   54.9683138625853     
 soft         electrons   1757.04637160489     
 total        electrons   1812.01468546748     
 augmentation electrons   37.8374841665938     
 soft         electrons   1757.04637160489     
 total        electrons   59.9183229511573     
 translations:           0           1           0
   8 F= -.36406056E+04 E0= -.36406056E+04  d E =-.268846E-01  mag=    60.0000
 curvature:  -0.38 expect dE=-0.286E-01 dE for cont linesearch -0.680E-04
 trial: gam= 0.79670 g(F)=  0.752E-01 g(S)=  0.000E+00 ort =-0.595E-02 (trialstep = 0.500E+00)
 search vector abs. value=  0.191E+00
 bond charge predicted
       N       E                     dE             d eps       ncg     rms          rms(c)
DAV:   1    -0.360267484293E+04   -0.65970E-02   -0.35912E+00  5376   0.152E+00    0.870E-01
DAV:   2    -0.360269341540E+04   -0.18572E-01   -0.19931E-01  6016   0.286E-01    0.477E-01
DAV:   3    -0.360269321483E+04    0.20057E-03   -0.46712E-03  6144   0.562E-02    0.259E-01
DAV:   4    -0.360269299594E+04    0.21889E-03   -0.38389E-04  6656   0.150E-02    0.178E-01
DAV:   5    -0.360269273702E+04    0.25892E-03   -0.56998E-04  6400   0.229E-02    0.773E-02
DAV:   6    -0.360269274437E+04   -0.73451E-05   -0.20700E-04  6528   0.114E-02    0.152E-02
DAV:   7    -0.360269274336E+04    0.10079E-05   -0.15606E-05  6016   0.346E-03    0.776E-03
DAV:   8    -0.360269274236E+04    0.99631E-06   -0.17705E-06  5504   0.158E-03
 augmentation electrons   1812.09162754336     
 soft         electrons  0.000000000000000E+000
 total        electrons   1812.09162754336     
 augmentation electrons -8.184790170022446E-002
 soft         electrons  0.000000000000000E+000
 total        electrons -8.184790170022446E-002
 augmentation electrons   2210.99644423846     
 soft         electrons  0.000000000000000E+000
 total        electrons   2210.99644423846     
 augmentation electrons   2153.47928436646     
 soft         electrons  0.000000000000000E+000
 total        electrons   2153.47928436646     
 augmentation electrons   55.0444501109478     
 soft         electrons   1757.04710250488     
 total        electrons   1812.09155261583     
 augmentation electrons   37.8526963151077     
 soft         electrons   1757.04710250488     
 total        electrons   59.9181182304985     
 translations:           0           1           0
   9 F= -.36406317E+04 E0= -.36406317E+04  d E =-.260326E-01  mag=    60.0000
 trial-energy change:   -0.026033  1 .order   -0.023105   -0.035282   -0.010927
 step:   0.6191(harm=  0.7250)  dis= 0.01397  next Energy= -3640.633011 (dE=-0.274E-01)
 bond charge predicted
       N       E                     dE             d eps       ncg     rms          rms(c)
DAV:   1    -0.360269406843E+04   -0.13251E-02   -0.20152E-01  5632   0.362E-01    0.206E-01
DAV:   2    -0.360269510259E+04   -0.10342E-02   -0.11098E-02  6016   0.682E-02    0.112E-01
DAV:   3    -0.360269509097E+04    0.11622E-04   -0.26346E-04  6144   0.134E-02    0.617E-02
DAV:   4    -0.360269507880E+04    0.12172E-04   -0.20729E-05  6656   0.348E-03    0.426E-02
DAV:   5    -0.360269506300E+04    0.15792E-04   -0.31588E-05  6272   0.531E-03    0.183E-02
DAV:   6    -0.360269506282E+04    0.18686E-06   -0.10819E-05  6400   0.256E-03    0.356E-03
DAV:   7    -0.360269506280E+04    0.18597E-07   -0.61353E-07  4352   0.709E-04
 augmentation electrons   1812.11759206133     
 soft         electrons  0.000000000000000E+000
 total        electrons   1812.11759206133     
 augmentation electrons -8.203016179983905E-002
 soft         electrons  0.000000000000000E+000
 total        electrons -8.203016179983905E-002
 augmentation electrons   2241.08066352712     
 soft         electrons  0.000000000000000E+000
 total        electrons   2241.08066352712     
 augmentation electrons   2183.56350365512     
 soft         electrons  0.000000000000000E+000
 total        electrons   2183.56350365512     
 augmentation electrons   55.0701945844493     
 soft         electrons   1757.04732339710     
 total        electrons   1812.11751798155     
 augmentation electrons   37.8561014193692     
 soft         electrons   1757.04732339710     
 total        electrons   59.9179361603729     
 translations:           0           1           0
  10 F= -.36406343E+04 E0= -.36406343E+04  d E =-.286672E-01  mag=    60.0000
 curvature:  -0.76 expect dE=-0.625E-01 dE for cont linesearch -0.356E-03
 trial: gam= 0.86007 g(F)=  0.818E-01 g(S)=  0.000E+00 ort = 0.944E-02 (trialstep = 0.418E+00)
 search vector abs. value=  0.239E+00
 bond charge predicted
       N       E                     dE             d eps       ncg     rms          rms(c)
DAV:   1    -0.360270177394E+04   -0.67111E-02   -0.31693E+00  5376   0.148E+00    0.733E-01
DAV:   2    -0.360271819313E+04   -0.16419E-01   -0.17154E-01  6144   0.270E-01    0.379E-01
DAV:   3    -0.360271806565E+04    0.12748E-03   -0.38558E-03  6144   0.518E-02    0.218E-01
DAV:   4    -0.360271791300E+04    0.15265E-03   -0.33573E-04  6656   0.150E-02    0.158E-01
DAV:   5    -0.360271772586E+04    0.18714E-03   -0.39730E-04  6400   0.193E-02    0.666E-02
DAV:   6    -0.360271773209E+04   -0.62281E-05   -0.16371E-04  6528   0.102E-02    0.139E-02
DAV:   7    -0.360271773121E+04    0.87594E-06   -0.13767E-05  6144   0.330E-03    0.719E-03
DAV:   8    -0.360271773034E+04    0.86946E-06   -0.18778E-06  5376   0.155E-03
 augmentation electrons   1812.23580542333     
 soft         electrons  0.000000000000000E+000
 total        electrons   1812.23580542333     
 augmentation electrons -8.204550017842308E-002
 soft         electrons  0.000000000000000E+000
 total        electrons -8.204550017842308E-002
 augmentation electrons   2349.22202875322     
 soft         electrons  0.000000000000000E+000
 total        electrons   2349.22202875322     
 augmentation electrons   2291.70486888122     
 soft         electrons  0.000000000000000E+000
 total        electrons   2291.70486888122     
 augmentation electrons   55.1893257657592     
 soft         electrons   1757.04641010193     
 total        electrons   1812.23573586769     
 augmentation electrons   37.8654276271954     
 soft         electrons   1757.04641010193     
 total        electrons   59.9179215809781     
 translations:           0           1           0
  11 F= -.36406564E+04 E0= -.36406564E+04  d E =-.221189E-01  mag=    60.0000
 trial-energy change:   -0.022119  1 .order   -0.023005   -0.037638   -0.008371
 step:   0.5781(harm=  0.5380)  dis= 0.01410  next Energy= -3640.657979 (dE=-0.237E-01)
 bond charge predicted
       N       E                     dE             d eps       ncg     rms          rms(c)
DAV:   1    -0.360271639549E+04    0.13357E-02   -0.46161E-01  5760   0.567E-01    0.280E-01
DAV:   2    -0.360271878637E+04   -0.23909E-02   -0.25003E-02  6016   0.104E-01    0.145E-01
DAV:   3    -0.360271876827E+04    0.18096E-04   -0.56380E-04  6144   0.199E-02    0.834E-02
DAV:   4    -0.360271874655E+04    0.21725E-04   -0.48434E-05  6656   0.568E-03    0.605E-02
DAV:   5    -0.360271871962E+04    0.26928E-04   -0.57362E-05  6400   0.723E-03    0.255E-02
DAV:   6    -0.360271872055E+04   -0.92962E-06   -0.23137E-05  6400   0.373E-03    0.524E-03
DAV:   7    -0.360271872050E+04    0.47818E-07   -0.16816E-06  4992   0.117E-03
 augmentation electrons   1812.29097819605     
 soft         electrons  0.000000000000000E+000
 total        electrons   1812.29097819605     
 augmentation electrons -8.192866447382838E-002
 soft         electrons  0.000000000000000E+000
 total        electrons -8.192866447382838E-002
 augmentation electrons   2393.58205741392     
 soft         electrons  0.000000000000000E+000
 total        electrons   2393.58205741392     
 augmentation electrons   2336.06489754192     
 soft         electrons  0.000000000000000E+000
 total        electrons   2336.06489754192     
 augmentation electrons   55.2447976556855     
 soft         electrons   1757.04611269217     
 total        electrons   1812.29091034785     
 augmentation electrons   37.8690692190220     
 soft         electrons   1757.04611269217     
 total        electrons   59.9180387060967     
 translations:           0           1           0
  12 F= -.36406572E+04 E0= -.36406572E+04  d E =-.228708E-01  mag=    60.0000
 curvature:  -0.64 expect dE=-0.612E-01 dE for cont linesearch -0.120E-03
 trial: gam= 1.39337 g(F)=  0.963E-01 g(S)=  0.000E+00 ort =-0.673E-02 (trialstep = 0.199E+00)
 search vector abs. value=  0.542E+00
 bond charge predicted
       N       E                     dE             d eps       ncg     rms          rms(c)
DAV:   1    -0.360272511003E+04   -0.63895E-02   -0.15338E+00  5376   0.925E-01    0.495E-01
DAV:   2    -0.360273325458E+04   -0.81445E-02   -0.83624E-02  5760   0.169E-01    0.238E-01
DAV:   3    -0.360273323546E+04    0.19116E-04   -0.16788E-03  6144   0.316E-02    0.139E-01
DAV:   4    -0.360273317652E+04    0.58943E-04   -0.13154E-04  6400   0.871E-03    0.105E-01
DAV:   5    -0.360273309081E+04    0.85711E-04   -0.18841E-04  6400   0.125E-02    0.488E-02
DAV:   6    -0.360273309270E+04   -0.18964E-05   -0.74489E-05  6528   0.657E-03    0.111E-02
DAV:   7    -0.360273309253E+04    0.17048E-06   -0.72878E-06  6144   0.243E-03
 augmentation electrons   1812.37471072301     
 soft         electrons  0.000000000000000E+000
 total        electrons   1812.37471072301     
 augmentation electrons -8.090326034867572E-002
 soft         electrons  0.000000000000000E+000
 total        electrons -8.090326034867572E-002
 augmentation electrons   2453.28239782875     
 soft         electrons  0.000000000000000E+000
 total        electrons   2453.28239782875     
 augmentation electrons   2395.76523795675     
 soft         electrons  0.000000000000000E+000
 total        electrons   2395.76523795675     
 augmentation electrons   55.3292875699656     
 soft         electrons   1757.04535917034     
 total        electrons   1812.37464674030     
 augmentation electrons   37.8746202495838     
 soft         electrons   1757.04535917034     
 total        electrons   59.9190646597232     
 translations:           0           1           0
  13 F= -.36406706E+04 E0= -.36406706E+04  d E =-.133968E-01  mag=    60.0000
 trial-energy change:   -0.013397  1 .order   -0.013908   -0.017273   -0.010543
 step:   0.5103(harm=  0.5103)  dis= 0.01910  next Energy= -3640.679349 (dE=-0.222E-01)
 bond charge predicted
       N       E                     dE             d eps       ncg     rms          rms(c)
DAV:   1    -0.360272171681E+04    0.11376E-01   -0.37632E+00  5376   0.145E+00    0.775E-01
DAV:   2    -0.360274169178E+04   -0.19975E-01   -0.20503E-01  5760   0.266E-01    0.373E-01
DAV:   3    -0.360274165109E+04    0.40696E-04   -0.41143E-03  6144   0.494E-02    0.218E-01
DAV:   4    -0.360274150718E+04    0.14391E-03   -0.32056E-04  6400   0.136E-02    0.165E-01
DAV:   5    -0.360274129862E+04    0.20856E-03   -0.46450E-04  6400   0.196E-02    0.764E-02
DAV:   6    -0.360274130427E+04   -0.56510E-05   -0.18163E-04  6528   0.102E-02    0.174E-02
DAV:   7    -0.360274130378E+04    0.48235E-06   -0.17288E-05  6144   0.375E-03    0.769E-03
DAV:   8    -0.360274130292E+04    0.86569E-06   -0.22998E-06  5504   0.175E-03
 augmentation electrons   1812.50976726141     
 soft         electrons  0.000000000000000E+000
 total        electrons   1812.50976726141     
 augmentation electrons -7.987822976521147E-002
 soft         electrons  0.000000000000000E+000
 total        electrons -7.987822976521147E-002
 augmentation electrons   2542.24850171611     
 soft         electrons  0.000000000000000E+000
 total        electrons   2542.24850171611     
 augmentation electrons   2484.73134184411     
 soft         electrons  0.000000000000000E+000
 total        electrons   2484.73134184411     
 augmentation electrons   55.4656328952594     
 soft         electrons   1757.04407475755     
 total        electrons   1812.50970765281     
 augmentation electrons   37.8827838570862     
 soft         electrons   1757.04407475755     
 total        electrons   59.9200904859718     
 translations:           0           1           0
  14 F= -.36406772E+04 E0= -.36406772E+04  d E =-.200286E-01  mag=    60.0000
 curvature:  -1.59 expect dE=-0.174E+00 dE for cont linesearch -0.293E-04
 trial: gam= 0.76783 g(F)=  0.109E+00 g(S)=  0.000E+00 ort = 0.316E-02 (trialstep = 0.261E+00)
 search vector abs. value=  0.434E+00
 bond charge predicted
       N       E                     dE             d eps       ncg     rms          rms(c)
DAV:   1    -0.360275806538E+04   -0.16762E-01   -0.21803E+00  5376   0.115E+00    0.532E-01
DAV:   2    -0.360276796740E+04   -0.99020E-02   -0.10421E-01  6144   0.203E-01    0.252E-01
DAV:   3    -0.360276784218E+04    0.12522E-03   -0.19306E-03  6400   0.363E-02    0.157E-01
DAV:   4    -0.360276772901E+04    0.11317E-03   -0.21989E-04  6528   0.126E-02    0.115E-01
DAV:   5    -0.360276764172E+04    0.87289E-04   -0.25140E-04  6400   0.151E-02    0.418E-02
DAV:   6    -0.360276764771E+04   -0.59964E-05   -0.75010E-05  6528   0.663E-03    0.868E-03
DAV:   7    -0.360276764676E+04    0.95100E-06   -0.38412E-06  6016   0.200E-03
 augmentation electrons   1812.54546006536     
 soft         electrons  0.000000000000000E+000
 total        electrons   1812.54546006536     
 augmentation electrons -7.885535703234285E-002
 soft         electrons  0.000000000000000E+000
 total        electrons -7.885535703234285E-002
 augmentation electrons   2564.09220353891     
 soft         electrons  0.000000000000000E+000
 total        electrons   2564.09220353891     
 augmentation electrons   2506.57504366691     
 soft         electrons  0.000000000000000E+000
 total        electrons   2506.57504366691     
 augmentation electrons   55.5017390341031     
 soft         electrons   1757.04366312682     
 total        electrons   1812.54540216092     
 augmentation electrons   37.8852217288932     
 soft         electrons   1757.04366312682     
 total        electrons   59.9211138752365     
 translations:           0           1           0
  15 F= -.36407018E+04 E0= -.36407018E+04  d E =-.245581E-01  mag=    60.0000
 trial-energy change:   -0.024558  1 .order   -0.022805   -0.029170   -0.016441
 step:   0.4083(harm=  0.5984)  dis= 0.01220  next Energy= -3640.706715 (dE=-0.295E-01)
 bond charge predicted
       N       E                     dE             d eps       ncg     rms          rms(c)
DAV:   1    -0.360277392265E+04   -0.62749E-02   -0.69368E-01  5632   0.650E-01    0.301E-01
DAV:   2    -0.360277708331E+04   -0.31607E-02   -0.33243E-02  6144   0.115E-01    0.142E-01
DAV:   3    -0.360277704087E+04    0.42448E-04   -0.61603E-04  6400   0.206E-02    0.888E-02
DAV:   4    -0.360277700404E+04    0.36826E-04   -0.70877E-05  6528   0.714E-03    0.648E-02
DAV:   5    -0.360277697542E+04    0.28622E-04   -0.80708E-05  6400   0.853E-03    0.237E-02
DAV:   6    -0.360277697724E+04   -0.18230E-05   -0.24053E-05  6528   0.374E-03    0.488E-03
DAV:   7    -0.360277697694E+04    0.30018E-06   -0.11530E-06  4992   0.112E-03
 augmentation electrons   1812.55681839013     
 soft         electrons  0.000000000000000E+000
 total        electrons   1812.55681839013     
 augmentation electrons -7.877288256793653E-002
 soft         electrons  0.000000000000000E+000
 total        electrons -7.877288256793653E-002
 augmentation electrons   2574.81637748315     
 soft         electrons  0.000000000000000E+000
 total        electrons   2574.81637748315     
 augmentation electrons   2517.29921761115     
 soft         electrons  0.000000000000000E+000
 total        electrons   2517.29921761115     
 augmentation electrons   55.5133427592122     
 soft         electrons   1757.04341808556     
 total        electrons   1812.55676084477     
 augmentation electrons   37.8861423596454     
 soft         electrons   1757.04341808556     
 total        electrons   59.9211966218174     
 translations:           0           1           0
  16 F= -.36407101E+04 E0= -.36407101E+04  d E =-.328816E-01  mag=    60.0000
 curvature:  -0.79 expect dE=-0.412E-01 dE for cont linesearch -0.281E-02
 ZBRENT: increasing intervall
 opt :   0.7026  next Energy= -3640.714633 (dE=-0.374E-01)
 bond charge predicted
       N       E                     dE             d eps       ncg     rms          rms(c)
DAV:   1    -0.360277143650E+04    0.55407E-02   -0.27730E+00  5376   0.130E+00    0.602E-01
DAV:   2    -0.360278403160E+04   -0.12595E-01   -0.13261E-01  6144   0.230E-01    0.284E-01
DAV:   3    -0.360278386650E+04    0.16511E-03   -0.24620E-03  6400   0.411E-02    0.177E-01
DAV:   4    -0.360278372038E+04    0.14612E-03   -0.28410E-04  6528   0.144E-02    0.129E-01
DAV:   5    -0.360278360755E+04    0.11283E-03   -0.32237E-04  6528   0.173E-02    0.473E-02
DAV:   6    -0.360278361483E+04   -0.72848E-05   -0.95827E-05  6528   0.766E-03    0.984E-03
DAV:   7    -0.360278361358E+04    0.12497E-05   -0.52358E-06  6272   0.236E-03    0.557E-03
DAV:   8    -0.360278361301E+04    0.57841E-06   -0.13867E-06  5504   0.135E-03
 augmentation electrons   1812.55875507813     
 soft         electrons  0.000000000000000E+000
 total        electrons   1812.55875507813     
 augmentation electrons -7.825580597530929E-002
 soft         electrons  0.000000000000000E+000
 total        electrons -7.825580597530929E-002
 augmentation electrons   2588.68186619557     
 soft         electrons  0.000000000000000E+000
 total        electrons   2588.68186619557     
 augmentation electrons   2531.16470632357     
 soft         electrons  0.000000000000000E+000
 total        electrons   2531.16470632357     
 augmentation electrons   55.5158005556220     
 soft         electrons   1757.04289658656     
 total        electrons   1812.55869714218     
 augmentation electrons   37.8883623953936     
 soft         electrons   1757.04289658656     
 total        electrons   59.9217142079256     
 translations:           0           1           0
  17 F= -.36407147E+04 E0= -.36407147E+04  d E =-.375139E-01  mag=    60.0000
 curvature:  -1.28 expect dE=-0.191E+00 dE for cont linesearch -0.953E-03
 ZBRENT: bracketing found
 ZBRENT: interpolating
 opt :   0.6101  next Energy= -3640.715555 (dE=-0.383E-01)
 bond charge predicted
       N       E                     dE             d eps       ncg     rms          rms(c)
DAV:   1    -0.360278216054E+04    0.14530E-02   -0.27409E-01  5632   0.410E-01    0.190E-01
DAV:   2    -0.360278340226E+04   -0.12417E-02   -0.13076E-02  6144   0.724E-02    0.888E-02
DAV:   3    -0.360278338602E+04    0.16235E-04   -0.24257E-04  6528   0.130E-02    0.554E-02
DAV:   4    -0.360278337167E+04    0.14351E-04   -0.28821E-05  6528   0.465E-03    0.405E-02
DAV:   5    -0.360278336070E+04    0.10970E-04   -0.31733E-05  6528   0.568E-03    0.151E-02
DAV:   6    -0.360278336155E+04   -0.85212E-06   -0.10636E-05  6528   0.261E-03    0.318E-03
DAV:   7    -0.360278336138E+04    0.17240E-06   -0.65469E-07  4480   0.869E-04
 augmentation electrons   1812.56114937774     
 soft         electrons  0.000000000000000E+000
 total        electrons   1812.56114937774     
 augmentation electrons -7.855615886701764E-002
 soft         electrons  0.000000000000000E+000
 total        electrons -7.855615886701764E-002
 augmentation electrons   2585.58119624651     
 soft         electrons  0.000000000000000E+000
 total        electrons   2585.58119624651     
 augmentation electrons   2528.06403637451     
 soft         electrons  0.000000000000000E+000
 total        electrons   2528.06403637451     
 augmentation electrons   55.5180328992364     
 soft         electrons   1757.04305882336     
 total        electrons   1812.56109172260     
 augmentation electrons   37.8875284896815     
 soft         electrons   1757.04305882336     
 total        electrons   59.9214136997629     
 translations:           0           1           0
  18 F= -.36407151E+04 E0= -.36407151E+04  d E =-.378924E-01  mag=    60.0000
 curvature:  -1.12 expect dE=-0.119E+00 dE for cont linesearch -0.196E-04
 trial: gam= 1.13642 g(F)=  0.106E+00 g(S)=  0.000E+00 ort =-0.276E-02 (trialstep = 0.217E+00)
 search vector abs. value=  0.660E+00
 bond charge predicted
       N       E                     dE             d eps       ncg     rms          rms(c)
DAV:   1    -0.360279550161E+04   -0.12140E-01   -0.22209E+00  5376   0.109E+00    0.533E-01
DAV:   2    -0.360280503189E+04   -0.95303E-02   -0.10156E-01  5888   0.194E-01    0.250E-01
DAV:   3    -0.360280488238E+04    0.14952E-03   -0.17753E-03  6400   0.352E-02    0.160E-01
DAV:   4    -0.360280478109E+04    0.10129E-03   -0.19274E-04  6400   0.116E-02    0.120E-01
DAV:   5    -0.360280467877E+04    0.10232E-03   -0.26665E-04  6400   0.151E-02    0.482E-02
DAV:   6    -0.360280468399E+04   -0.52250E-05   -0.88779E-05  6528   0.730E-03    0.971E-03
DAV:   7    -0.360280468282E+04    0.11676E-05   -0.72535E-06  6144   0.255E-03    0.491E-03
DAV:   8    -0.360280468227E+04    0.55745E-06   -0.13829E-06  5248   0.132E-03
 augmentation electrons   1812.52707857877     
 soft         electrons  0.000000000000000E+000
 total        electrons   1812.52707857877     
 augmentation electrons -7.822317249078617E-002
 soft         electrons  0.000000000000000E+000
 total        electrons -7.822317249078617E-002
 augmentation electrons   2571.92696675441     
 soft         electrons  0.000000000000000E+000
 total        electrons   2571.92696675441     
 augmentation electrons   2514.40980688241     
 soft         electrons  0.000000000000000E+000
 total        electrons   2514.40980688241     
 augmentation electrons   55.4841703365718     
 soft         electrons   1757.04284898545     
 total        electrons   1812.52701932203     
 augmentation electrons   37.8865115602444     
 soft         electrons   1757.04284898545     
 total        electrons   59.9217471642226     
 translations:           0           1           0
  19 F= -.36407341E+04 E0= -.36407341E+04  d E =-.189848E-01  mag=    60.0000
 trial-energy change:   -0.018985  1 .order   -0.017327   -0.022426   -0.012229
 step:   0.3238(harm=  0.4781)  dis= 0.01103  next Energy= -3640.737272 (dE=-0.222E-01)
 bond charge predicted
       N       E                     dE             d eps       ncg     rms          rms(c)
DAV:   1    -0.360280906379E+04   -0.43810E-02   -0.53030E-01  5376   0.534E-01    0.259E-01
DAV:   2    -0.360281134618E+04   -0.22824E-02   -0.24312E-02  5888   0.953E-02    0.123E-01
DAV:   3    -0.360281131248E+04    0.33701E-04   -0.42546E-04  6528   0.172E-02    0.786E-02
DAV:   4    -0.360281128908E+04    0.23401E-04   -0.44722E-05  6400   0.555E-03    0.592E-02
DAV:   5    -0.360281126546E+04    0.23615E-04   -0.63629E-05  6400   0.720E-03    0.237E-02
DAV:   6    -0.360281126691E+04   -0.14467E-05   -0.20270E-05  6528   0.339E-03    0.468E-03
DAV:   7    -0.360281126665E+04    0.26090E-06   -0.13818E-06  4992   0.113E-03
 augmentation electrons   1812.50626725607     
 soft         electrons  0.000000000000000E+000
 total        electrons   1812.50626725607     
 augmentation electrons -7.793189874326087E-002
 soft         electrons  0.000000000000000E+000
 total        electrons -7.793189874326087E-002
 augmentation electrons   2563.82027917476     
 soft         electrons  0.000000000000000E+000
 total        electrons   2563.82027917476     
 augmentation electrons   2506.30311930276     
 soft         electrons  0.000000000000000E+000
 total        electrons   2506.30311930276     
 augmentation electrons   55.4635380939532     
 soft         electrons   1757.04266866253     
 total        electrons   1812.50620675649     
 augmentation electrons   37.8861730751814     
 soft         electrons   1757.04266866253     
 total        electrons   59.9220386614862     
 translations:           0           1           0
  20 F= -.36407395E+04 E0= -.36407395E+04  d E =-.244400E-01  mag=    60.0000
 curvature:  -0.99 expect dE=-0.651E-01 dE for cont linesearch -0.222E-02
 ZBRENT: increasing intervall
 opt :   0.5364  next Energy= -3640.743908 (dE=-0.288E-01)
 bond charge predicted
       N       E                     dE             d eps       ncg     rms          rms(c)
DAV:   1    -0.360280935197E+04    0.19149E-02   -0.21256E+00  5376   0.107E+00    0.520E-01
DAV:   2    -0.360281849502E+04   -0.91430E-02   -0.97299E-02  5888   0.191E-01    0.246E-01
DAV:   3    -0.360281835281E+04    0.14221E-03   -0.16957E-03  6528   0.344E-02    0.157E-01
DAV:   4    -0.360281825567E+04    0.97136E-04   -0.18419E-04  6400   0.113E-02    0.118E-01
DAV:   5    -0.360281815876E+04    0.96914E-04   -0.25847E-04  6400   0.148E-02    0.472E-02
DAV:   6    -0.360281816425E+04   -0.54952E-05   -0.83461E-05  6528   0.701E-03    0.940E-03
DAV:   7    -0.360281816322E+04    0.10310E-05   -0.64363E-06  6144   0.242E-03    0.473E-03
DAV:   8    -0.360281816279E+04    0.42564E-06   -0.12876E-06  5248   0.123E-03
 augmentation electrons   1812.45958234890     
 soft         electrons  0.000000000000000E+000
 total        electrons   1812.45958234890     
 augmentation electrons -7.744947951426814E-002
 soft         electrons  0.000000000000000E+000
 total        electrons -7.744947951426814E-002
 augmentation electrons   2545.83717078324     
 soft         electrons  0.000000000000000E+000
 total        electrons   2545.83717078324     
 augmentation electrons   2488.32001091124     
 soft         electrons  0.000000000000000E+000
 total        electrons   2488.32001091124     
 augmentation electrons   55.4170531239553     
 soft         electrons   1757.04246584107     
 total        electrons   1812.45951896502     
 augmentation electrons   37.8853854895822     
 soft         electrons   1757.04246584107     
 total        electrons   59.9225215067259     
 translations:           0           1           0
  21 F= -.36407442E+04 E0= -.36407442E+04  d E =-.290713E-01  mag=    60.0000
 curvature:  -1.96 expect dE=-0.257E+00 dE for cont linesearch -0.156E-03
 trial: gam= 1.23842 g(F)=  0.131E+00 g(S)=  0.000E+00 ort =-0.726E-02 (trialstep = 0.165E+00)
 search vector abs. value=  0.113E+01
 bond charge predicted
       N       E                     dE             d eps       ncg     rms          rms(c)
DAV:   1    -0.360282841375E+04   -0.10251E-01   -0.20904E+00  5376   0.992E-01    0.525E-01
DAV:   2    -0.360283737352E+04   -0.89598E-02   -0.95021E-02  6016   0.182E-01    0.248E-01
DAV:   3    -0.360283726246E+04    0.11106E-03   -0.15305E-03  6400   0.321E-02    0.159E-01
DAV:   4    -0.360283719164E+04    0.70821E-04   -0.12816E-04  6400   0.860E-03    0.121E-01
DAV:   5    -0.360283708676E+04    0.10488E-03   -0.31633E-04  6400   0.152E-02    0.522E-02
DAV:   6    -0.360283709480E+04   -0.80398E-05   -0.85251E-05  6528   0.684E-03    0.109E-02
DAV:   7    -0.360283709396E+04    0.83580E-06   -0.65797E-06  6272   0.242E-03
 augmentation electrons   1812.38245100053     
 soft         electrons  0.000000000000000E+000
 total        electrons   1812.38245100053     
 augmentation electrons -7.728583299853969E-002
 soft         electrons  0.000000000000000E+000
 total        electrons -7.728583299853969E-002
 augmentation electrons   2507.96997046551     
 soft         electrons  0.000000000000000E+000
 total        electrons   2507.96997046551     
 augmentation electrons   2450.45281059351     
 soft         electrons  0.000000000000000E+000
 total        electrons   2450.45281059351     
 augmentation electrons   55.3405516945557     
 soft         electrons   1757.04183380329     
 total        electrons   1812.38238549785     
 augmentation electrons   37.8823235138564     
 soft         electrons   1757.04183380329     
 total        electrons   59.9226856004480     
 translations:           0           1           0
  22 F= -.36407600E+04 E0= -.36407600E+04  d E =-.158292E-01  mag=    60.0000
 trial-energy change:   -0.015829  1 .order   -0.017180   -0.020190   -0.014170
 step:   0.5530(harm=  0.5530)  dis= 0.02323  next Energy= -3640.778030 (dE=-0.339E-01)
 bond charge predicted
       N       E                     dE             d eps       ncg     rms          rms(c)
DAV:   1    -0.360281177269E+04    0.25322E-01   -0.11584E+01  5376   0.234E+00    0.125E+00
DAV:   2    -0.360286152885E+04   -0.49756E-01   -0.52789E-01  6016   0.428E-01    0.587E-01
DAV:   3    -0.360286088854E+04    0.64031E-03   -0.84975E-03  6400   0.762E-02    0.375E-01
DAV:   4    -0.360286048968E+04    0.39886E-03   -0.72272E-04  6400   0.205E-02    0.286E-01
DAV:   5    -0.360285988788E+04    0.60180E-03   -0.17480E-03  6400   0.360E-02    0.124E-01
DAV:   6    -0.360285992693E+04   -0.39050E-04   -0.47765E-04  6528   0.164E-02    0.263E-02
DAV:   7    -0.360285992242E+04    0.45151E-05   -0.39573E-05  6272   0.598E-03    0.125E-02
DAV:   8    -0.360285992090E+04    0.15168E-05   -0.80460E-06  6144   0.295E-03    0.486E-03
DAV:   9    -0.360285992022E+04    0.67783E-06   -0.16253E-06  5376   0.183E-03
 augmentation electrons   1812.20111377554     
 soft         electrons  0.000000000000000E+000
 total        electrons   1812.20111377554     
 augmentation electrons -7.495405345347776E-002
 soft         electrons  0.000000000000000E+000
 total        electrons -7.495405345347776E-002
 augmentation electrons   2429.14581728542     
 soft         electrons  0.000000000000000E+000
 total        electrons   2429.14581728542     
 augmentation electrons   2371.62865741342     
 soft         electrons  0.000000000000000E+000
 total        electrons   2371.62865741342     
 augmentation electrons   55.1604298472619     
 soft         electrons   1757.04061990872     
 total        electrons   1812.20104975598     
 augmentation electrons   37.8771040726455     
 soft         electrons   1757.04061990872     
 total        electrons   59.9250183955114     
 translations:           0           1           0
  23 F= -.36407756E+04 E0= -.36407756E+04  d E =-.313876E-01  mag=    60.0000
 curvature:  -2.54 expect dE=-0.288E+00 dE for cont linesearch -0.696E-03
 trial: gam= 0.61507 g(F)=  0.113E+00 g(S)=  0.000E+00 ort = 0.176E-01 (trialstep = 0.243E+00)
 search vector abs. value=  0.561E+00
 bond charge predicted
       N       E                     dE             d eps       ncg     rms          rms(c)
DAV:   1    -0.360287150463E+04   -0.11584E-01   -0.24067E+00  5376   0.121E+00    0.551E-01
DAV:   2    -0.360288041516E+04   -0.89105E-02   -0.99764E-02  6144   0.217E-01    0.279E-01
DAV:   3    -0.360288013294E+04    0.28222E-03   -0.19474E-03  6656   0.415E-02    0.181E-01
DAV:   4    -0.360288001821E+04    0.11473E-03   -0.23340E-04  6272   0.134E-02    0.134E-01
DAV:   5    -0.360287990437E+04    0.11384E-03   -0.30145E-04  6400   0.163E-02    0.524E-02
DAV:   6    -0.360287991353E+04   -0.91668E-05   -0.10445E-04  6528   0.839E-03    0.102E-02
DAV:   7    -0.360287991294E+04    0.59171E-06   -0.83592E-06  6144   0.269E-03
 augmentation electrons   1812.10731457725     
 soft         electrons  0.000000000000000E+000
 total        electrons   1812.10731457725     
 augmentation electrons -7.437422931696602E-002
 soft         electrons  0.000000000000000E+000
 total        electrons -7.437422931696602E-002
 augmentation electrons   2390.09330764305     
 soft         electrons  0.000000000000000E+000
 total        electrons   2390.09330764305     
 augmentation electrons   2332.57614777105     
 soft         electrons  0.000000000000000E+000
 total        electrons   2332.57614777105     
 augmentation electrons   55.0681175045581     
 soft         electrons   1757.03913814745     
 total        electrons   1812.10725565201     
 augmentation electrons   37.8730880762071     
 soft         electrons   1757.03913814745     
 total        electrons   59.9255986611791     
 translations:           0           1           0
  24 F= -.36407915E+04 E0= -.36407915E+04  d E =-.159371E-01  mag=    60.0000
 trial-energy change:   -0.015937  1 .order   -0.019566   -0.030104   -0.009028
 step:   0.3464(harm=  0.3464)  dis= 0.00899  next Energy= -3640.797062 (dE=-0.215E-01)
 bond charge predicted
       N       E                     dE             d eps       ncg     rms          rms(c)
DAV:   1    -0.360288031147E+04   -0.39794E-03   -0.44316E-01  5504   0.519E-01    0.235E-01
DAV:   2    -0.360288196271E+04   -0.16512E-02   -0.18398E-02  6144   0.932E-02    0.120E-01
DAV:   3    -0.360288191059E+04    0.52119E-04   -0.35773E-04  6656   0.178E-02    0.781E-02
DAV:   4    -0.360288188938E+04    0.21212E-04   -0.44171E-05  6272   0.583E-03    0.577E-02
DAV:   5    -0.360288187032E+04    0.19058E-04   -0.56516E-05  6400   0.704E-03    0.224E-02
DAV:   6    -0.360288187281E+04   -0.24934E-05   -0.19273E-05  6528   0.359E-03    0.434E-03
DAV:   7    -0.360288187276E+04    0.56185E-07   -0.14310E-06  4864   0.114E-03
 augmentation electrons   1812.06953589207     
 soft         electrons  0.000000000000000E+000
 total        electrons   1812.06953589207     
 augmentation electrons -7.397805545133587E-002
 soft         electrons  0.000000000000000E+000
 total        electrons -7.397805545133587E-002
 augmentation electrons   2375.68749635739     
 soft         electrons  0.000000000000000E+000
 total        electrons   2375.68749635739     
 augmentation electrons   2318.17033648539     
 soft         electrons  0.000000000000000E+000
 total        electrons   2318.17033648539     
 augmentation electrons   55.0308957299164     
 soft         electrons   1757.03858380559     
 total        electrons   1812.06947953551     
 augmentation electrons   37.8715025362843     
 soft         electrons   1757.03858380559     
 total        electrons   59.9259950208857     
 translations:           0           1           0
  25 F= -.36407917E+04 E0= -.36407917E+04  d E =-.161645E-01  mag=    60.0000
 curvature:  -0.78 expect dE=-0.231E-01 dE for cont linesearch -0.365E-04
 trial: gam= 0.38965 g(F)=  0.295E-01 g(S)=  0.000E+00 ort =-0.512E-02 (trialstep = 0.263E+00)
 search vector abs. value=  0.111E+00
 bond charge predicted
       N       E                     dE             d eps       ncg     rms          rms(c)
DAV:   1    -0.360288529174E+04   -0.34189E-02   -0.55324E-01  5504   0.598E-01    0.267E-01
DAV:   2    -0.360288726510E+04   -0.19734E-02   -0.22222E-02  6144   0.105E-01    0.140E-01
DAV:   3    -0.360288719984E+04    0.65265E-04   -0.41990E-04  6656   0.199E-02    0.903E-02
DAV:   4    -0.360288717287E+04    0.26964E-04   -0.49675E-05  6528   0.625E-03    0.656E-02
DAV:   5    -0.360288714622E+04    0.26657E-04   -0.85735E-05  6400   0.890E-03    0.239E-02
DAV:   6    -0.360288714976E+04   -0.35436E-05   -0.26573E-05  6528   0.425E-03    0.499E-03
DAV:   7    -0.360288714954E+04    0.21840E-06   -0.13287E-06  4736   0.110E-03
 augmentation electrons   1812.02062757626     
 soft         electrons  0.000000000000000E+000
 total        electrons   1812.02062757626     
 augmentation electrons -7.359210858310955E-002
 soft         electrons  0.000000000000000E+000
 total        electrons -7.359210858310955E-002
 augmentation electrons   2352.84421445951     
 soft         electrons  0.000000000000000E+000
 total        electrons   2352.84421445951     
 augmentation electrons   2295.32705458751     
 soft         electrons  0.000000000000000E+000
 total        electrons   2295.32705458751     
 augmentation electrons   54.9817451476423     
 soft         electrons   1757.03882862577     
 total        electrons   1812.02057377341     
 augmentation electrons   37.8687180627706     
 soft         electrons   1757.03882862577     
 total        electrons   59.9263811950171     
 translations:           0           1           0
  26 F= -.36407952E+04 E0= -.36407952E+04  d E =-.344050E-02  mag=    60.0000
 trial-energy change:   -0.003441  1 .order   -0.004395   -0.007246   -0.001543
 step:   0.3345(harm=  0.3345)  dis= 0.00397  next Energy= -3640.796330 (dE=-0.460E-02)
 bond charge predicted
       N       E                     dE             d eps       ncg     rms          rms(c)
DAV:   1    -0.360288749612E+04   -0.34636E-03   -0.40625E-02  5760   0.162E-01    0.721E-02
DAV:   2    -0.360288764382E+04   -0.14769E-03   -0.16445E-03  6144   0.285E-02    0.381E-02
DAV:   3    -0.360288763950E+04    0.43150E-05   -0.30909E-05  6656   0.539E-03    0.246E-02
DAV:   4    -0.360288763772E+04    0.17797E-05   -0.36019E-06  5632   0.169E-03    0.179E-02
DAV:   5    -0.360288763660E+04    0.11203E-05   -0.68914E-06  5888   0.248E-03    0.634E-03
DAV:   6    -0.360288763709E+04   -0.49328E-06   -0.18896E-06  4864   0.112E-03
 augmentation electrons   1812.00817450972     
 soft         electrons  0.000000000000000E+000
 total        electrons   1812.00817450972     
 augmentation electrons -7.349584841623093E-002
 soft         electrons  0.000000000000000E+000
 total        electrons -7.349584841623093E-002
 augmentation electrons   2347.09968467635     
 soft         electrons  0.000000000000000E+000
 total        electrons   2347.09968467635     
 augmentation electrons   2289.58252480435     
 soft         electrons  0.000000000000000E+000
 total        electrons   2289.58252480435     
 augmentation electrons   54.9691882147391     
 soft         electrons   1757.03893319749     
 total        electrons   1812.00812141223     
 augmentation electrons   37.8679452675458     
 soft         electrons   1757.03893319749     
 total        electrons   59.9264775164751     
 translations:           0           1           0
  27 F= -.36407952E+04 E0= -.36407952E+04  d E =-.343301E-02  mag=    60.0000
 curvature:  -0.67 expect dE=-0.114E-01 dE for cont linesearch -0.150E-04
 trial: gam= 0.36677 g(F)=  0.170E-01 g(S)=  0.000E+00 ort = 0.157E-02 (trialstep = 0.278E+00)
 search vector abs. value=  0.330E-01
 bond charge predicted
       N       E                     dE             d eps       ncg     rms          rms(c)
DAV:   1    -0.360289096634E+04   -0.33297E-02   -0.19552E-01  5632   0.397E-01    0.151E-01
DAV:   2    -0.360289151722E+04   -0.55088E-03   -0.69048E-03  6144   0.681E-02    0.870E-02
DAV:   3    -0.360289147708E+04    0.40132E-04   -0.18756E-04  6912   0.139E-02    0.564E-02
DAV:   4    -0.360289146387E+04    0.13218E-04   -0.29973E-05  6400   0.501E-03    0.391E-02
DAV:   5    -0.360289145491E+04    0.89585E-05   -0.21337E-05  6272   0.477E-03    0.125E-02
DAV:   6    -0.360289145560E+04   -0.69341E-06   -0.81823E-06  6272   0.250E-03
 augmentation electrons   1811.98219725104     
 soft         electrons  0.000000000000000E+000
 total        electrons   1811.98219725104     
 augmentation electrons -7.330777321808374E-002
 soft         electrons  0.000000000000000E+000
 total        electrons -7.330777321808374E-002
 augmentation electrons   2332.63349171321     
 soft         electrons  0.000000000000000E+000
 total        electrons   2332.63349171321     
 augmentation electrons   2275.11633184121     
 soft         electrons  0.000000000000000E+000
 total        electrons   2275.11633184121     
 augmentation electrons   54.9414681888656     
 soft         electrons   1757.04067707511     
 total        electrons   1811.98214526398     
 augmentation electrons   37.8660417271584     
 soft         electrons   1757.04067707511     
 total        electrons   59.9266657123264     
 translations:           0           1           0
  28 F= -.36407987E+04 E0= -.36407987E+04  d E =-.353865E-02  mag=    60.0000
 trial-energy change:   -0.003539  1 .order   -0.003048   -0.004867   -0.001229
 step:   0.3256(harm=  0.3713)  dis= 0.00207  next Energy= -3640.798807 (dE=-0.365E-02)
 bond charge predicted
       N       E                     dE             d eps       ncg     rms          rms(c)
DAV:   1    -0.360289173427E+04   -0.27937E-03   -0.59888E-03  5632   0.693E-02    0.272E-02
DAV:   2    -0.360289175087E+04   -0.16594E-04   -0.21353E-04  6144   0.120E-02    0.153E-02
DAV:   3    -0.360289174942E+04    0.14484E-05   -0.56034E-06  6784   0.243E-03    0.996E-03
DAV:   4    -0.360289174893E+04    0.49267E-06   -0.91950E-07  3840   0.915E-04
 augmentation electrons   1811.97786290996     
 soft         electrons  0.000000000000000E+000
 total        electrons   1811.97786290996     
 augmentation electrons -7.328702876439988E-002
 soft         electrons  0.000000000000000E+000
 total        electrons -7.328702876439988E-002
 augmentation electrons   2330.19835325529     
 soft         electrons  0.000000000000000E+000
 total        electrons   2330.19835325529     
 augmentation electrons   2272.68119338329     
 soft         electrons  0.000000000000000E+000
 total        electrons   2272.68119338329     
 augmentation electrons   54.9366857253020     
 soft         electrons   1757.04112539201     
 total        electrons   1811.97781111731     
 augmentation electrons   37.8656597233081     
 soft         electrons   1757.04112539201     
 total        electrons   59.9266864777355     
 translations:           0           1           0
  29 F= -.36407990E+04 E0= -.36407990E+04  d E =-.379847E-02  mag=    60.0000
 curvature:  -0.27 expect dE=-0.157E-02 dE for cont linesearch -0.313E-04
 ZBRENT: increasing intervall
 opt :   0.4219  next Energy= -3640.798910 (dE=-0.375E-02)
 bond charge predicted
       N       E                     dE             d eps       ncg     rms          rms(c)
DAV:   1    -0.360289195958E+04   -0.21016E-03   -0.23071E-02  5632   0.137E-01    0.501E-02
DAV:   2    -0.360289202381E+04   -0.64236E-04   -0.80324E-04  6272   0.231E-02    0.286E-02
DAV:   3    -0.360289201972E+04    0.40888E-05   -0.21043E-05  6784   0.462E-03    0.190E-02
DAV:   4    -0.360289201838E+04    0.13455E-05   -0.32425E-06  6272   0.167E-03    0.133E-02
DAV:   5    -0.360289201758E+04    0.79226E-06   -0.21003E-06  4992   0.153E-03
 augmentation electrons   1811.96927142714     
 soft         electrons  0.000000000000000E+000
 total        electrons   1811.96927142714     
 augmentation electrons -7.324508308149505E-002
 soft         electrons  0.000000000000000E+000
 total        electrons -7.324508308149505E-002
 augmentation electrons   2325.39314997488     
 soft         electrons  0.000000000000000E+000
 total        electrons   2325.39314997488     
 augmentation electrons   2267.87599010288     
 soft         electrons  0.000000000000000E+000
 total        electrons   2267.87599010288     
 augmentation electrons   54.9274871831453     
 soft         electrons   1757.04173284081     
 total        electrons   1811.96922002396     
 augmentation electrons   37.8649872131665     
 soft         electrons   1757.04173284081     
 total        electrons   59.9267284653145     
 translations:           0           1           0
  30 F= -.36407991E+04 E0= -.36407991E+04  d E =-.397134E-02  mag=    60.0000
 curvature:   0.41 expect dE= 0.417E-02 dE for cont linesearch  0.825E-04
 ZBRENT: bracketing found
 ZBRENT: interpolating
 opt :   0.3672  next Energy= -3640.798999 (dE=-0.384E-02)
 bond charge predicted
       N       E                     dE             d eps       ncg     rms          rms(c)
DAV:   1    -0.360289190019E+04    0.11818E-03   -0.76078E-03  5632   0.784E-02    0.296E-02
DAV:   2    -0.360289192243E+04   -0.22239E-04   -0.27427E-04  6144   0.135E-02    0.171E-02
DAV:   3    -0.360289192076E+04    0.16704E-05   -0.76336E-06  6784   0.278E-03    0.112E-02
DAV:   4    -0.360289192019E+04    0.56979E-06   -0.11260E-06  4352   0.103E-03
 augmentation electrons   1811.97409295519     
 soft         electrons  0.000000000000000E+000
 total        electrons   1811.97409295519     
 augmentation electrons -7.326899408374199E-002
 soft         electrons  0.000000000000000E+000
 total        electrons -7.326899408374199E-002
 augmentation electrons   2328.11394262886     
 soft         electrons  0.000000000000000E+000
 total        electrons   2328.11394262886     
 augmentation electrons   2270.59678275686     
 soft         electrons  0.000000000000000E+000
 total        electrons   2270.59678275686     
 augmentation electrons   54.9328342571454     
 soft         electrons   1757.04120707329     
 total        electrons   1811.97404133043     
 augmentation electrons   37.8654438902776     
 soft         electrons   1757.04120707329     
 total        electrons   59.9267045304701     
 translations:           0           1           0
  31 F= -.36407991E+04 E0= -.36407991E+04  d E =-.391418E-02  mag=    60.0000
 curvature:  -0.20 expect dE=-0.148E-02 dE for cont linesearch -0.223E-06
 trial: gam= 0.47774 g(F)=  0.738E-02 g(S)=  0.000E+00 ort = 0.192E-03 (trialstep = 0.295E+00)
 search vector abs. value=  0.151E-01
 bond charge predicted
       N       E                     dE             d eps       ncg     rms          rms(c)
DAV:   1    -0.360289384392E+04   -0.19232E-02   -0.93178E-02  5376   0.275E-01    0.107E-01
DAV:   2    -0.360289408939E+04   -0.24547E-03   -0.30746E-03  6144   0.456E-02    0.623E-02
DAV:   3    -0.360289407213E+04    0.17261E-04   -0.79339E-05  6784   0.919E-03    0.397E-02
DAV:   4    -0.360289406524E+04    0.68859E-05   -0.12029E-05  6528   0.321E-03    0.271E-02
DAV:   5    -0.360289406028E+04    0.49637E-05   -0.13347E-05  6016   0.386E-03    0.841E-03
DAV:   6    -0.360289406072E+04   -0.44363E-06   -0.44711E-06  5888   0.185E-03
 augmentation electrons   1811.95476780544     
 soft         electrons  0.000000000000000E+000
 total        electrons   1811.95476780544     
 augmentation electrons -7.322067856845658E-002
 soft         electrons  0.000000000000000E+000
 total        electrons -7.322067856845658E-002
 augmentation electrons   2316.11153151878     
 soft         electrons  0.000000000000000E+000
 total        electrons   2316.11153151878     
 augmentation electrons   2258.59437164678     
 soft         electrons  0.000000000000000E+000
 total        electrons   2258.59437164678     
 augmentation electrons   54.9117141673702     
 soft         electrons   1757.04300287309     
 total        electrons   1811.95471704046     
 augmentation electrons   37.8637812643631     
 soft         electrons   1757.04300287309     
 total        electrons   59.9267529317131     
 translations:           0           1           0
  32 F= -.36408012E+04 E0= -.36408012E+04  d E =-.207756E-02  mag=    60.0000
 trial-energy change:   -0.002078  1 .order   -0.001552   -0.002208   -0.000896
 step:   0.3481(harm=  0.4972)  dis= 0.00160  next Energy= -3640.801234 (dE=-0.216E-02)
 bond charge predicted
       N       E                     dE             d eps       ncg     rms          rms(c)
DAV:   1    -0.360289430685E+04   -0.24657E-03   -0.29949E-03  5632   0.491E-02    0.194E-02
DAV:   2    -0.360289431440E+04   -0.75561E-05   -0.99624E-05  6144   0.813E-03    0.109E-02
DAV:   3    -0.360289431371E+04    0.69667E-06   -0.23040E-06  6016   0.161E-03
 augmentation electrons   1811.95139674045     
 soft         electrons  0.000000000000000E+000
 total        electrons   1811.95139674045     
 augmentation electrons -7.321211942267668E-002
 soft         electrons  0.000000000000000E+000
 total        electrons -7.321211942267668E-002
 augmentation electrons   2314.01977216761     
 soft         electrons  0.000000000000000E+000
 total        electrons   2314.01977216761     
 augmentation electrons   2256.50261229561     
 soft         electrons  0.000000000000000E+000
 total        electrons   2256.50261229561     
 augmentation electrons   54.9078967790423     
 soft         electrons   1757.04344935043     
 total        electrons   1811.95134612947     
 augmentation electrons   37.8634390362406     
 soft         electrons   1757.04344935043     
 total        electrons   59.9267615062236     
 translations:           0           1           0
  33 F= -.36408014E+04 E0= -.36408014E+04  d E =-.233909E-02  mag=    60.0000
 curvature:  -0.23 expect dE=-0.112E-02 dE for cont linesearch -0.848E-04
 ZBRENT: increasing intervall
 opt :   0.4534  next Energy= -3640.801592 (dE=-0.252E-02)
 bond charge predicted
       N       E                     dE             d eps       ncg     rms          rms(c)
DAV:   1    -0.360289468242E+04   -0.36801E-03   -0.11426E-02  5632   0.968E-02    0.341E-02
DAV:   2    -0.360289471182E+04   -0.29407E-04   -0.36656E-04  6144   0.154E-02    0.202E-02
DAV:   3    -0.360289471031E+04    0.15160E-05   -0.87534E-06  6912   0.298E-03    0.140E-02
DAV:   4    -0.360289470959E+04    0.71412E-06   -0.10104E-06  4224   0.103E-03
 augmentation electrons   1811.94478179613     
 soft         electrons  0.000000000000000E+000
 total        electrons   1811.94478179613     
 augmentation electrons -7.321333015466244E-002
 soft         electrons  0.000000000000000E+000
 total        electrons -7.321333015466244E-002
 augmentation electrons   2309.87916228625     
 soft         electrons  0.000000000000000E+000
 total        electrons   2309.87916228625     
 augmentation electrons   2252.36200241425     
 soft         electrons  0.000000000000000E+000
 total        electrons   2252.36200241425     
 augmentation electrons   54.9006579537982     
 soft         electrons   1757.04407353959     
 total        electrons   1811.94473149339     
 augmentation electrons   37.8628528469679     
 soft         electrons   1757.04407353959     
 total        electrons   59.9267603262574     
 translations:           0           1           0
  34 F= -.36408018E+04 E0= -.36408018E+04  d E =-.271399E-02  mag=    60.0000
 curvature:  -0.48 expect dE=-0.341E-02 dE for cont linesearch -0.288E-04
 trial: gam= 0.83706 g(F)=  0.706E-02 g(S)=  0.000E+00 ort = 0.948E-03 (trialstep = 0.257E+00)
 search vector abs. value=  0.192E-01
 bond charge predicted
       N       E                     dE             d eps       ncg     rms          rms(c)
DAV:   1    -0.360289651053E+04   -0.18002E-02   -0.78456E-02  5376   0.249E-01    0.958E-02
DAV:   2    -0.360289671975E+04   -0.20922E-03   -0.25379E-03  6016   0.400E-02    0.529E-02
DAV:   3    -0.360289671038E+04    0.93702E-05   -0.63932E-05  6784   0.791E-03    0.351E-02
DAV:   4    -0.360289670638E+04    0.40041E-05   -0.76311E-06  6400   0.259E-03    0.244E-02
DAV:   5    -0.360289670423E+04    0.21538E-05   -0.94096E-06  5760   0.322E-03    0.659E-03
DAV:   6    -0.360289670470E+04   -0.47751E-06   -0.28063E-06  5376   0.150E-03
 augmentation electrons   1811.92812978327     
 soft         electrons  0.000000000000000E+000
 total        electrons   1811.92812978327     
 augmentation electrons -7.333289391388159E-002
 soft         electrons  0.000000000000000E+000
 total        electrons -7.333289391388159E-002
 augmentation electrons   2298.47682598279     
 soft         electrons  0.000000000000000E+000
 total        electrons   2298.47682598279     
 augmentation electrons   2240.95966611079     
 soft         electrons  0.000000000000000E+000
 total        electrons   2240.95966611079     
 augmentation electrons   54.8828834698588     
 soft         electrons   1757.04519658596     
 total        electrons   1811.92808005582     
 augmentation electrons   37.8613361075299     
 soft         electrons   1757.04519658596     
 total        electrons   59.9266408302948     
 translations:           0           1           0
  35 F= -.36408035E+04 E0= -.36408035E+04  d E =-.172439E-02  mag=    60.0000
 trial-energy change:   -0.001724  1 .order   -0.001617   -0.002016   -0.001217
 step:   0.4245(harm=  0.6482)  dis= 0.00234  next Energy= -3640.803939 (dE=-0.215E-02)
 bond charge predicted
       N       E                     dE             d eps       ncg     rms          rms(c)
DAV:   1    -0.360289744480E+04   -0.74057E-03   -0.33839E-02  5632   0.163E-01    0.644E-02
DAV:   2    -0.360289753623E+04   -0.91435E-04   -0.11015E-03  6016   0.264E-02    0.355E-02
DAV:   3    -0.360289753164E+04    0.45973E-05   -0.27045E-05  6784   0.522E-03    0.233E-02
DAV:   4    -0.360289752977E+04    0.18686E-05   -0.35980E-06  6400   0.175E-03    0.160E-02
DAV:   5    -0.360289752887E+04    0.89481E-06   -0.45162E-06  5760   0.219E-03
 augmentation electrons   1811.91779612731     
 soft         electrons  0.000000000000000E+000
 total        electrons   1811.91779612731     
 augmentation electrons -7.336512788831477E-002
 soft         electrons  0.000000000000000E+000
 total        electrons -7.336512788831477E-002
 augmentation electrons   2291.25548360490     
 soft         electrons  0.000000000000000E+000
 total        electrons   2291.25548360490     
 augmentation electrons   2233.73832373290     
 soft         electrons  0.000000000000000E+000
 total        electrons   2233.73832373290     
 augmentation electrons   54.8715780614256     
 soft         electrons   1757.04616871627     
 total        electrons   1811.91774677769     
 augmentation electrons   37.8603203168301     
 soft         electrons   1757.04616871627     
 total        electrons   59.9266086411328     
 translations:           0           1           0
  36 F= -.36408042E+04 E0= -.36408042E+04  d E =-.238569E-02  mag=    60.0000
 curvature:  -0.53 expect dE=-0.256E-02 dE for cont linesearch -0.171E-03
 ZBRENT: increasing intervall
 opt :   0.7599  next Energy= -3640.804249 (dE=-0.246E-02)
 bond charge predicted
       N       E                     dE             d eps       ncg     rms          rms(c)
DAV:   1    -0.360289776224E+04   -0.23247E-03   -0.13469E-01  5376   0.325E-01    0.128E-01
DAV:   2    -0.360289812051E+04   -0.35827E-03   -0.43417E-03  6016   0.527E-02    0.713E-02
DAV:   3    -0.360289810324E+04    0.17269E-04   -0.10926E-04  6784   0.104E-02    0.463E-02
DAV:   4    -0.360289809590E+04    0.73373E-05   -0.13482E-05  6400   0.340E-03    0.319E-02
DAV:   5    -0.360289809143E+04    0.44703E-05   -0.17506E-05  6272   0.435E-03    0.911E-03
DAV:   6    -0.360289809223E+04   -0.79899E-06   -0.50744E-06  6016   0.202E-03
 augmentation electrons   1811.89798572466     
 soft         electrons  0.000000000000000E+000
 total        electrons   1811.89798572466     
 augmentation electrons -7.338473111485264E-002
 soft         electrons  0.000000000000000E+000
 total        electrons -7.338473111485264E-002
 augmentation electrons   2277.34241053248     
 soft         electrons  0.000000000000000E+000
 total        electrons   2277.34241053248     
 augmentation electrons   2219.82525066048     
 soft         electrons  0.000000000000000E+000
 total        electrons   2219.82525066048     
 augmentation electrons   54.8503055493103     
 soft         electrons   1757.04763158093     
 total        electrons   1811.89793713024     
 augmentation electrons   37.8584563875470     
 soft         electrons   1757.04763158093     
 total        electrons   59.9265891287726     
 translations:           0           1           0
  37 F= -.36408044E+04 E0= -.36408044E+04  d E =-.261350E-02  mag=    60.0000
 curvature:  -0.24 expect dE=-0.377E-02 dE for cont linesearch -0.477E-04
 ZBRENT: bracketing found
 ZBRENT: interpolating
 opt :   0.6115  next Energy= -3640.804547 (dE=-0.276E-02)
 bond charge predicted
       N       E                     dE             d eps       ncg     rms          rms(c)
DAV:   1    -0.360289796180E+04    0.12963E-03   -0.26149E-02  5632   0.144E-01    0.558E-02
DAV:   2    -0.360289803029E+04   -0.68485E-04   -0.84533E-04  6016   0.233E-02    0.314E-02
DAV:   3    -0.360289802673E+04    0.35549E-05   -0.22716E-05  6784   0.469E-03    0.204E-02
DAV:   4    -0.360289802514E+04    0.15918E-05   -0.25023E-06  5632   0.151E-03    0.142E-02
DAV:   5    -0.360289802350E+04    0.16429E-05   -0.33245E-06  5760   0.201E-03    0.398E-03
DAV:   6    -0.360289802343E+04    0.65862E-07   -0.10168E-06  4096   0.948E-04
 augmentation electrons   1811.90660320691     
 soft         electrons  0.000000000000000E+000
 total        electrons   1811.90660320691     
 augmentation electrons -7.339708922986579E-002
 soft         electrons  0.000000000000000E+000
 total        electrons -7.339708922986579E-002
 augmentation electrons   2283.40955448931     
 soft         electrons  0.000000000000000E+000
 total        electrons   2283.40955448931     
 augmentation electrons   2225.89239461731     
 soft         electrons  0.000000000000000E+000
 total        electrons   2225.89239461731     
 augmentation electrons   54.8595726235346     
 soft         electrons   1757.04698165540     
 total        electrons   1811.90655427894     
 augmentation electrons   37.8592668975194     
 soft         electrons   1757.04698165540     
 total        electrons   59.9265767302550     
 translations:           0           1           0
  38 F= -.36408045E+04 E0= -.36408045E+04  d E =-.269120E-02  mag=    60.0000
 curvature:  -0.72 expect dE=-0.699E-02 dE for cont linesearch -0.391E-08
 trial: gam= 1.54828 g(F)=  0.966E-02 g(S)=  0.000E+00 ort = 0.102E-04 (trialstep = 0.113E+00)
 search vector abs. value=  0.558E-01
 bond charge predicted
       N       E                     dE             d eps       ncg     rms          rms(c)
DAV:   1    -0.360289896690E+04   -0.94340E-03   -0.38641E-02  5632   0.165E-01    0.682E-02
DAV:   2    -0.360289907481E+04   -0.10791E-03   -0.12461E-03  6144   0.261E-02    0.366E-02
DAV:   3    -0.360289907161E+04    0.31991E-05   -0.24032E-05  6784   0.487E-03    0.239E-02
DAV:   4    -0.360289907001E+04    0.15989E-05   -0.30928E-06  5504   0.166E-03    0.167E-02
DAV:   5    -0.360289906956E+04    0.45628E-06   -0.54032E-06  5760   0.240E-03
 augmentation electrons   1811.89811199754     
 soft         electrons  0.000000000000000E+000
 total        electrons   1811.89811199754     
 augmentation electrons -7.342273955877937E-002
 soft         electrons  0.000000000000000E+000
 total        electrons -7.342273955877937E-002
 augmentation electrons   2276.19980039141     
 soft         electrons  0.000000000000000E+000
 total        electrons   2276.19980039141     
 augmentation electrons   2218.68264051941     
 soft         electrons  0.000000000000000E+000
 total        electrons   2218.68264051941     
 augmentation electrons   54.8504760170803     
 soft         electrons   1757.04758743321     
 total        electrons   1811.89806345029     
 augmentation electrons   37.8583169730257     
 soft         electrons   1757.04758743321     
 total        electrons   59.9265511168887     
 translations:           0           1           0
  39 F= -.36408054E+04 E0= -.36408054E+04  d E =-.899294E-03  mag=    60.0000
 ZBRENT: can't locate minimum, use default step
 trial-energy change:   -0.000899  1 .order   -0.001005   -0.001093   -0.000917
 step:   0.4520(harm=  0.7002)  dis= 0.00440  next Energy= -3640.807865 (dE=-0.339E-02)
 bond charge predicted
       N       E                     dE             d eps       ncg     rms          rms(c)
DAV:   1    -0.360290023777E+04   -0.11678E-02   -0.34928E-01  5376   0.497E-01    0.206E-01
DAV:   2    -0.360290121135E+04   -0.97358E-03   -0.11276E-02  6144   0.786E-02    0.110E-01
DAV:   3    -0.360290117691E+04    0.34441E-04   -0.21424E-04  6656   0.147E-02    0.719E-02
DAV:   4    -0.360290116062E+04    0.16287E-04   -0.30405E-05  6528   0.503E-03    0.500E-02
DAV:   5    -0.360290115138E+04    0.92485E-05   -0.47946E-05  6400   0.678E-03    0.129E-02
DAV:   6    -0.360290115281E+04   -0.14309E-05   -0.11324E-05  6144   0.301E-03    0.432E-03
DAV:   7    -0.360290115262E+04    0.18210E-06   -0.53948E-07  4224   0.858E-04
 augmentation electrons   1811.87462942657     
 soft         electrons  0.000000000000000E+000
 total        electrons   1811.87462942657     
 augmentation electrons -7.346082990722899E-002
 soft         electrons  0.000000000000000E+000
 total        electrons -7.346082990722899E-002
 augmentation electrons   2255.54937010862     
 soft         electrons  0.000000000000000E+000
 total        electrons   2255.54937010862     
 augmentation electrons   2198.03221023662     
 soft         electrons  0.000000000000000E+000
 total        electrons   2198.03221023662     
 augmentation electrons   54.8255159709268     
 soft         electrons   1757.04906602505     
 total        electrons   1811.87458199598     
 augmentation electrons   37.8556130254320     
 soft         electrons   1757.04906602505     
 total        electrons   59.9265131408336     
 translations:           0           1           0
  40 F= -.36408070E+04 E0= -.36408070E+04  d E =-.252841E-02  mag=    60.0000
 curvature:  -1.66 expect dE=-0.131E-01 dE for cont linesearch -0.214E-03
 ZBRENT: extrapolating
[...]
 curvature:  -1.12 expect dE=-0.752E-02 dE for cont linesearch -0.985E-07
 trial: gam= 1.11635 g(F)=  0.672E-02 g(S)=  0.000E+00 ort = 0.505E-04 (trialstep = 0.221E+00)
 search vector abs. value=  0.429E-01
 bond charge predicted
       N       E                     dE             d eps       ncg     rms          rms(c)
DAV:   1    -0.360295321281E+04   -0.10798E-02   -0.11874E-01  5120   0.361E-01    0.110E-01
DAV:   2    -0.360295350408E+04   -0.29127E-03   -0.33008E-03  6144   0.499E-02    0.606E-02
DAV:   3    -0.360295349471E+04    0.93753E-05   -0.85025E-05  6656   0.957E-03    0.381E-02
DAV:   4    -0.360295348632E+04    0.83855E-05   -0.19463E-05  6656   0.481E-03    0.205E-02
DAV:   5    -0.360295348574E+04    0.58461E-06   -0.82683E-06  6400   0.300E-03
 augmentation electrons   1811.76579327968     
 soft         electrons  0.000000000000000E+000
 total        electrons   1811.76579327968     
 augmentation electrons -7.262752439936607E-002
 soft         electrons  0.000000000000000E+000
 total        electrons -7.262752439936607E-002
 augmentation electrons   2100.82424892683     
 soft         electrons  0.000000000000000E+000
 total        electrons   2100.82424892683     
 augmentation electrons   2043.30708905483     
 soft         electrons  0.000000000000000E+000
 total        electrons   2043.30708905483     
 augmentation electrons   54.7165227780364     
 soft         electrons   1757.04922535882     
 total        electrons   1811.76574813685     
 augmentation electrons   37.8642695704002     
 soft         electrons   1757.04922535882     
 total        electrons   59.9273452143067     
 translations:           0           1           0
  86 F= -.36408676E+04 E0= -.36408676E+04  d E =-.127163E-02  mag=    60.0000
 trial-energy change:   -0.001272  1 .order   -0.001209   -0.001495   -0.000924
 step:   0.3868(harm=  0.5769)  dis= 0.00144  next Energy= -3640.867958 (dE=-0.165E-02)
 bond charge predicted
       N       E                     dE             d eps       ncg     rms          rms(c)
DAV:   1    -0.360295399489E+04   -0.50857E-03   -0.67696E-02  5120   0.272E-01    0.834E-02
DAV:   2    -0.360295416024E+04   -0.16535E-03   -0.18886E-03  6144   0.378E-02    0.459E-02
DAV:   3    -0.360295415423E+04    0.60032E-05   -0.49246E-05  6656   0.733E-03    0.288E-02
DAV:   4    -0.360295414927E+04    0.49694E-05   -0.11537E-05  6656   0.368E-03    0.157E-02
DAV:   5    -0.360295414883E+04    0.43158E-06   -0.48054E-06  6400   0.227E-03
 augmentation electrons   1811.76469078429     
 soft         electrons  0.000000000000000E+000
 total        electrons   1811.76469078429     
 augmentation electrons -7.247103728616042E-002
 soft         electrons  0.000000000000000E+000
 total        electrons -7.247103728616042E-002
 augmentation electrons   2100.57648874761     
 soft         electrons  0.000000000000000E+000
 total        electrons   2100.57648874761     
 augmentation electrons   2043.05932887561     
 soft         electrons  0.000000000000000E+000
 total        electrons   2043.05932887561     
 augmentation electrons   54.7157404072146     
 soft         electrons   1757.04890462807     
 total        electrons   1811.76464503528     
 augmentation electrons   37.8646129356318     
 soft         electrons   1757.04890462807     
 total        electrons   59.9275015904768     
 translations:           0           1           0
  87 F= -.36408682E+04 E0= -.36408682E+04  d E =-.187460E-02  mag=    60.0000
 curvature:  -1.31 expect dE=-0.497E-02 dE for cont linesearch -0.162E-03
 ZBRENT: increasing intervall
 opt :   0.7192  next Energy= -3640.868330 (dE=-0.202E-02)
 bond charge predicted
       N       E                     dE             d eps       ncg     rms          rms(c)
DAV:   1    -0.360295390584E+04    0.24342E-03   -0.26952E-01  5120   0.544E-01    0.166E-01
DAV:   2    -0.360295456673E+04   -0.66089E-03   -0.74841E-03  6144   0.751E-02    0.913E-02
DAV:   3    -0.360295454586E+04    0.20870E-04   -0.19294E-04  6656   0.144E-02    0.574E-02
DAV:   4    -0.360295452706E+04    0.18802E-04   -0.43929E-05  6656   0.723E-03    0.310E-02
DAV:   5    -0.360295452591E+04    0.11465E-05   -0.18765E-05  6400   0.453E-03    0.723E-03
DAV:   6    -0.360295452587E+04    0.41036E-07   -0.24531E-06  5632   0.177E-03
 augmentation electrons   1811.76272940145     
 soft         electrons  0.000000000000000E+000
 total        electrons   1811.76272940145     
 augmentation electrons -7.226636241326428E-002
 soft         electrons  0.000000000000000E+000
 total        electrons -7.226636241326428E-002
 augmentation electrons   2099.87204446991     
 soft         electrons  0.000000000000000E+000
 total        electrons   2099.87204446991     
 augmentation electrons   2042.35488459791     
 soft         electrons  0.000000000000000E+000
 total        electrons   2042.35488459791     
 augmentation electrons   54.7144043450683     
 soft         electrons   1757.04827809442     
 total        electrons   1811.76268243948     
 augmentation electrons   37.8651895257423     
 soft         electrons   1757.04827809442     
 total        electrons   59.9277060454793     
 translations:           0           1           0
  88 F= -.36408684E+04 E0= -.36408684E+04  d E =-.213006E-02  mag=    60.0000
 curvature:  -1.15 expect dE=-0.102E-01 dE for cont linesearch -0.546E-04
 ZBRENT: bracketing found
 ZBRENT: interpolating
 opt :   0.5924  next Energy= -3640.868533 (dE=-0.222E-02)
 bond charge predicted
       N       E                     dE             d eps       ncg     rms          rms(c)
DAV:   1    -0.360295443567E+04    0.90243E-04   -0.38885E-02  5120   0.207E-01    0.622E-02
DAV:   2    -0.360295453153E+04   -0.95862E-04   -0.10714E-03  6144   0.284E-02    0.345E-02
DAV:   3    -0.360295452950E+04    0.20340E-05   -0.27842E-05  6784   0.538E-03    0.218E-02
DAV:   4    -0.360295452715E+04    0.23479E-05   -0.53764E-06  6528   0.265E-03    0.119E-02
DAV:   5    -0.360295452714E+04    0.79308E-08   -0.26308E-06  6144   0.184E-03
 augmentation electrons   1811.76344741107     
 soft         electrons  0.000000000000000E+000
 total        electrons   1811.76344741107     
 augmentation electrons -7.230577297918563E-002
 soft         electrons  0.000000000000000E+000
 total        electrons -7.230577297918563E-002
 augmentation electrons   2100.18563593943     
 soft         electrons  0.000000000000000E+000
 total        electrons   2100.18563593943     
 augmentation electrons   2042.66847606743     
 soft         electrons  0.000000000000000E+000
 total        electrons   2042.66847606743     
 augmentation electrons   54.7148607428475     
 soft         electrons   1757.04854016913     
 total        electrons   1811.76340091198     
 augmentation electrons   37.8650002815391     
 soft         electrons   1757.04854016913     
 total        electrons   59.9276667185192     
 translations:           0           1           0
  89 F= -.36408685E+04 E0= -.36408685E+04  d E =-.217923E-02  mag=    60.0000
 curvature:  -1.91 expect dE=-0.113E-01 dE for cont linesearch -0.727E-06
 trial: gam= 0.76970 g(F)=  0.590E-02 g(S)=  0.000E+00 ort = 0.128E-03 (trialstep = 0.295E+00)
 search vector abs. value=  0.315E-01
 bond charge predicted
       N       E                     dE             d eps       ncg     rms          rms(c)
DAV:   1    -0.360295529206E+04   -0.76491E-03   -0.14794E-01  5248   0.427E-01    0.137E-01
DAV:   2    -0.360295578705E+04   -0.49499E-03   -0.53441E-03  6144   0.618E-02    0.730E-02
DAV:   3    -0.360295578086E+04    0.61937E-05   -0.14923E-04  6656   0.119E-02    0.448E-02
DAV:   4    -0.360295576973E+04    0.11128E-04   -0.24946E-05  6656   0.554E-03    0.247E-02
DAV:   5    -0.360295576863E+04    0.11047E-05   -0.11604E-05  6400   0.378E-03    0.621E-03
DAV:   6    -0.360295576871E+04   -0.89000E-07   -0.17627E-06  5120   0.145E-03
 augmentation electrons   1811.76069191250     
 soft         electrons  0.000000000000000E+000
 total        electrons   1811.76069191250     
 augmentation electrons -7.206474579217176E-002
 soft         electrons  0.000000000000000E+000
 total        electrons -7.206474579217176E-002
 augmentation electrons   2102.01397521753     
 soft         electrons  0.000000000000000E+000
 total        electrons   2102.01397521753     
 augmentation electrons   2044.49681534553     
 soft         electrons  0.000000000000000E+000
 total        electrons   2044.49681534553     
 augmentation electrons   54.7128185968858     
 soft         electrons   1757.04782584059     
 total        electrons   1811.76064443748     
 augmentation electrons   37.8654914275183     
 soft         electrons   1757.04782584059     
 total        electrons   59.9279075881067     
 translations:           0           1           0
  90 F= -.36408696E+04 E0= -.36408696E+04  d E =-.115224E-02  mag=    60.0000
 trial-energy change:   -0.001152  1 .order   -0.001268   -0.001769   -0.000767
 step:   0.5207(harm=  0.5207)  dis= 0.00165  next Energy= -3640.870052 (dE=-0.156E-02)
 bond charge predicted
       N       E                     dE             d eps       ncg     rms          rms(c)
DAV:   1    -0.360295577444E+04   -0.58142E-05   -0.87100E-02  5248   0.327E-01    0.105E-01
DAV:   2    -0.360295606560E+04   -0.29115E-03   -0.31553E-03  6144   0.475E-02    0.561E-02
DAV:   3    -0.360295606101E+04    0.45894E-05   -0.87669E-05  6784   0.918E-03    0.343E-02
DAV:   4    -0.360295605417E+04    0.68318E-05   -0.15575E-05  6528   0.431E-03    0.188E-02
DAV:   5    -0.360295605357E+04    0.60107E-06   -0.70467E-06  6528   0.282E-03
 augmentation electrons   1811.75878126464     
 soft         electrons  0.000000000000000E+000
 total        electrons   1811.75878126464     
 augmentation electrons -7.192729374930130E-002
 soft         electrons  0.000000000000000E+000
 total        electrons -7.192729374930130E-002
 augmentation electrons   2102.85051683284     
 soft         electrons  0.000000000000000E+000
 total        electrons   2102.85051683284     
 augmentation electrons   2045.33335696084     
 soft         electrons  0.000000000000000E+000
 total        electrons   2045.33335696084     
 augmentation electrons   54.7114911807570     
 soft         electrons   1757.04724185722     
 total        electrons   1811.75873303797     
 augmentation electrons   37.8658286225959     
 soft         electrons   1757.04724185722     
 total        electrons   59.9280449190298     
 translations:           0           1           0
  91 F= -.36408699E+04 E0= -.36408699E+04  d E =-.136868E-02  mag=    60.0000
 curvature:  -1.37 expect dE=-0.737E-02 dE for cont linesearch -0.342E-06
 trial: gam= 0.92206 g(F)=  0.538E-02 g(S)=  0.000E+00 ort =-0.887E-04 (trialstep = 0.335E+00)
 search vector abs. value=  0.320E-01
 bond charge predicted
       N       E                     dE             d eps       ncg     rms          rms(c)
DAV:   1    -0.360295636425E+04   -0.31007E-03   -0.18948E-01  5632   0.509E-01    0.172E-01
DAV:   2    -0.360295716992E+04   -0.80567E-03   -0.82636E-03  6144   0.742E-02    0.880E-02
DAV:   3    -0.360295717615E+04   -0.62332E-05   -0.23973E-04  6272   0.143E-02    0.515E-02
DAV:   4    -0.360295716292E+04    0.13230E-04   -0.29548E-05  6656   0.595E-03    0.298E-02
DAV:   5    -0.360295716106E+04    0.18603E-05   -0.16350E-05  6144   0.466E-03    0.797E-03
DAV:   6    -0.360295716142E+04   -0.35507E-06   -0.28554E-06  5632   0.175E-03
 augmentation electrons   1811.75845802670     
 soft         electrons  0.000000000000000E+000
 total        electrons   1811.75845802670     
 augmentation electrons -7.164476820307947E-002
 soft         electrons  0.000000000000000E+000
 total        electrons -7.164476820307947E-002
 augmentation electrons   2104.77196808936     
 soft         electrons  0.000000000000000E+000
 total        electrons   2104.77196808936     
 augmentation electrons   2047.25480821736     
 soft         electrons  0.000000000000000E+000
 total        electrons   2047.25480821736     
 augmentation electrons   54.7119185834299     
 soft         electrons   1757.04649002115     
 total        electrons   1811.75840860458     
 augmentation electrons   37.8663341286242     
 soft         electrons   1757.04649002115     
 total        electrons   59.9283272537730     
 translations:           0           1           0
  92 F= -.36408711E+04 E0= -.36408711E+04  d E =-.120688E-02  mag=    60.0000
 trial-energy change:   -0.001207  1 .order   -0.001309   -0.001774   -0.000844
 step:   0.6390(harm=  0.6390)  dis= 0.00211  next Energy= -3640.871553 (dE=-0.169E-02)
 bond charge predicted
       N       E                     dE             d eps       ncg     rms          rms(c)
DAV:   1    -0.360295667776E+04    0.48330E-03   -0.15624E-01  5632   0.462E-01    0.156E-01
DAV:   2    -0.360295734361E+04   -0.66585E-03   -0.68234E-03  6144   0.675E-02    0.801E-02
DAV:   3    -0.360295734856E+04   -0.49505E-05   -0.19772E-04  6272   0.130E-02    0.468E-02
DAV:   4    -0.360295733756E+04    0.11007E-04   -0.24824E-05  6656   0.546E-03    0.270E-02
DAV:   5    -0.360295733612E+04    0.14372E-05   -0.13563E-05  6144   0.423E-03    0.724E-03
DAV:   6    -0.360295733641E+04   -0.29049E-06   -0.22932E-06  5376   0.158E-03
 augmentation electrons   1811.75803222362     
 soft         electrons  0.000000000000000E+000
 total        electrons   1811.75803222362     
 augmentation electrons -7.159826277713163E-002
 soft         electrons  0.000000000000000E+000
 total        electrons -7.159826277713163E-002
 augmentation electrons   2102.08651138358     
 soft         electrons  0.000000000000000E+000
 total        electrons   2102.08651138358     
 augmentation electrons   2044.56935151158     
 soft         electrons  0.000000000000000E+000
 total        electrons   2044.56935151158     
 augmentation electrons   54.7122102168941     
 soft         electrons   1757.04577148645     
 total        electrons   1811.75798170334     
 augmentation electrons   37.8665924293950     
 soft         electrons   1757.04577148645     
 total        electrons   59.9283735818072     
 translations:           0           1           0
  93 F= -.36408713E+04 E0= -.36408713E+04  d E =-.146661E-02  mag=    60.0000
 curvature:  -1.93 expect dE=-0.153E-01 dE for cont linesearch -0.240E-05
 trial: gam= 1.47415 g(F)=  0.790E-02 g(S)=  0.000E+00 ort =-0.199E-03 (trialstep = 0.165E+00)
 search vector abs. value=  0.769E-01
 bond charge predicted
       N       E                     dE             d eps       ncg     rms          rms(c)
DAV:   1    -0.360295777564E+04   -0.43952E-03   -0.11095E-01  5632   0.395E-01    0.134E-01
DAV:   2    -0.360295826722E+04   -0.49159E-03   -0.49390E-03  6144   0.568E-02    0.680E-02
DAV:   3    -0.360295827383E+04   -0.66033E-05   -0.14306E-04  6144   0.109E-02    0.392E-02
DAV:   4    -0.360295826674E+04    0.70911E-05   -0.16716E-05  6528   0.450E-03    0.229E-02
DAV:   5    -0.360295826580E+04    0.93922E-06   -0.94512E-06  6400   0.363E-03
 augmentation electrons   1811.75719297956     
 soft         electrons  0.000000000000000E+000
 total        electrons   1811.75719297956     
 augmentation electrons -7.169242026789381E-002
 soft         electrons  0.000000000000000E+000
 total        electrons -7.169242026789381E-002
 augmentation electrons   2096.77596492059     
 soft         electrons  0.000000000000000E+000
 total        electrons   2096.77596492059     
 augmentation electrons   2039.25880504859     
 soft         electrons  0.000000000000000E+000
 total        electrons   2039.25880504859     
 augmentation electrons   54.7116382547520     
 soft         electrons   1757.04550332525     
 total        electrons   1811.75714158000     
 augmentation electrons   37.8666035457559     
 soft         electrons   1757.04550332525     
 total        electrons   59.9282792573409     
 translations:           0           1           0
  94 F= -.36408723E+04 E0= -.36408723E+04  d E =-.983684E-03  mag=    60.0000
 trial-energy change:   -0.000984  1 .order   -0.001040   -0.001254   -0.000827
 step:   0.4840(harm=  0.4840)  dis= 0.00267  next Energy= -3640.873168 (dE=-0.184E-02)
 bond charge predicted
       N       E                     dE             d eps       ncg     rms          rms(c)
DAV:   1    -0.360295715393E+04    0.11128E-02   -0.41632E-01  5632   0.765E-01    0.259E-01
DAV:   2    -0.360295899374E+04   -0.18398E-02   -0.18514E-02  6144   0.110E-01    0.132E-01
DAV:   3    -0.360295901875E+04   -0.25006E-04   -0.53672E-04  6144   0.211E-02    0.759E-02
DAV:   4    -0.360295899223E+04    0.26518E-04   -0.61641E-05  6528   0.864E-03    0.447E-02
DAV:   5    -0.360295898821E+04    0.40201E-05   -0.35146E-05  6400   0.703E-03    0.122E-02
DAV:   6    -0.360295898906E+04   -0.84647E-06   -0.65419E-06  6016   0.261E-03
 augmentation electrons   1811.75553078480     
 soft         electrons  0.000000000000000E+000
 total        electrons   1811.75553078480     
 augmentation electrons -7.248536531995070E-002
 soft         electrons  0.000000000000000E+000
 total        electrons -7.248536531995070E-002
 augmentation electrons   2079.84967608609     
 soft         electrons  0.000000000000000E+000
 total        electrons   2079.84967608609     
 augmentation electrons   2022.33251621409     
 soft         electrons  0.000000000000000E+000
 total        electrons   2022.33251621409     
 augmentation electrons   54.7103347940020     
 soft         electrons   1757.04514286637     
 total        electrons   1811.75547766037     
 augmentation electrons   37.8659761695582     
 soft         electrons   1757.04514286637     
 total        electrons   59.9274859810779     
 translations:           0           1           0
  95 F= -.36408731E+04 E0= -.36408731E+04  d E =-.181223E-02  mag=    60.0000
 curvature:  -2.45 expect dE=-0.129E-01 dE for cont linesearch -0.170E-04
 trial: gam= 0.40917 g(F)=  0.529E-02 g(S)=  0.000E+00 ort = 0.730E-03 (trialstep = 0.229E+00)
 search vector abs. value=  0.188E-01
 bond charge predicted
       N       E                     dE             d eps       ncg     rms          rms(c)
DAV:   1    -0.360295974231E+04   -0.75409E-03   -0.61797E-02  5248   0.293E-01    0.907E-02
DAV:   2    -0.360295996558E+04   -0.22327E-03   -0.24172E-03  6144   0.432E-02    0.487E-02
DAV:   3    -0.360295996193E+04    0.36445E-05   -0.75406E-05  6784   0.866E-03    0.291E-02
DAV:   4    -0.360295995595E+04    0.59776E-05   -0.13898E-05  6528   0.430E-03    0.148E-02
DAV:   5    -0.360295995568E+04    0.27849E-06   -0.54160E-06  6528   0.249E-03
 augmentation electrons   1811.75468931255     
 soft         electrons  0.000000000000000E+000
 total        electrons   1811.75468931255     
 augmentation electrons -7.262230257699434E-002
 soft         electrons  0.000000000000000E+000
 total        electrons -7.262230257699434E-002
 augmentation electrons   2076.04871756691     
 soft         electrons  0.000000000000000E+000
 total        electrons   2076.04871756691     
 augmentation electrons   2018.53155769491     
 soft         electrons  0.000000000000000E+000
 total        electrons   2018.53155769491     
 augmentation electrons   54.7091832704845     
 soft         electrons   1757.04545220532     
 total        electrons   1811.75463547581     
 augmentation electrons   37.8657310229464     
 soft         electrons   1757.04545220532     
 total        electrons   59.9273488983610     
 translations:           0           1           0
  96 F= -.36408742E+04 E0= -.36408742E+04  d E =-.107609E-02  mag=    60.0000
 trial-energy change:   -0.001076  1 .order   -0.000922   -0.001277   -0.000568
 step:   0.2967(harm=  0.4117)  dis= 0.00081  next Energy= -3640.874304 (dE=-0.116E-02)
 reached required accuracy - stopping structural energy minimisation
 writing wavefunctions
