 ----------------------------------------------------
    OOO  PPPP  EEEEE N   N M   M PPPP
   O   O P   P E     NN  N MM MM P   P
   O   O PPPP  EEEEE N N N M M M PPPP   -- VERSION
   O   O P     E     N  NN M   M P
    OOO  P     EEEEE N   N M   M P
 ----------------------------------------------------
 running  512 mpi-ranks, with    1 threads/rank
 distrk:  each k-point on  512 cores,    1 groups
 distr:  one band on    4 cores,  128 groups
 vasp.6.3.2 27Jun22 (build Nov 12 2024 19:13:04) complex                        
  
 POSCAR found type information on POSCAR MnBrN C H 
 POSCAR found :  5 types and     635 ions
 scaLAPACK will be used
 LDA part: xc-table for Pade appr. of Perdew
 POSCAR, INCAR and KPOINTS ok, starting setup
 FFT: planning ... GRIDC
 FFT: planning ... GRID_SOFT
 FFT: planning ... GRID
 WAVECAR not read
 entering main loop
       N       E                     dE             d eps       ncg     rms          rms(c)
DAV:   1     0.979732229176E+04    0.97973E+04   -0.80276E+05  5376   0.119E+03
DAV:   2    -0.265089547102E+04   -0.12448E+05   -0.12014E+05  6400   0.259E+02
DAV:   3    -0.389968573453E+04   -0.12488E+04   -0.12295E+04  6400   0.865E+01
DAV:   4    -0.393305331840E+04   -0.33368E+02   -0.33153E+02  6528   0.161E+01
DAV:   5    -0.393410647264E+04   -0.10532E+01   -0.10518E+01  6784   0.269E+00    0.189E+02
DAV:   6    -0.490197483991E+04   -0.96787E+03   -0.50044E+03  6272   0.485E+01    0.486E+02
DAV:   7    -0.430099523965E+04    0.60098E+03   -0.97372E+02  6272   0.236E+01    0.263E+02
DAV:   8    -0.390693791766E+04    0.39406E+03   -0.17898E+03  6912   0.561E+01    0.138E+02
DAV:   9    -0.419698730018E+04   -0.29005E+03   -0.76807E+03  7680   0.366E+01    0.178E+02
DAV:  10    -0.364955546650E+04    0.54743E+03   -0.19052E+03  7680   0.307E+01    0.111E+02
DAV:  11    -0.373837674108E+04   -0.88821E+02   -0.11710E+03  7424   0.182E+01    0.112E+02
DAV:  12    -0.375239020681E+04   -0.14013E+02   -0.68020E+02  6784   0.180E+01    0.122E+02
DAV:  13    -0.364869754553E+04    0.10369E+03   -0.42327E+02  6784   0.151E+01    0.103E+02
DAV:  14    -0.362355484771E+04    0.25143E+02   -0.18323E+02  6400   0.895E+00    0.103E+02
DAV:  15    -0.360779027232E+04    0.15765E+02   -0.25017E+02  6784   0.620E+00    0.874E+01
DAV:  16    -0.359488084186E+04    0.12909E+02   -0.13768E+02  6400   0.622E+00    0.875E+01
DAV:  17    -0.358255161558E+04    0.12329E+02   -0.60084E+01  6016   0.405E+00    0.755E+01
DAV:  18    -0.358317868244E+04   -0.62707E+00   -0.81616E+01  5760   0.267E+00    0.746E+01
DAV:  19    -0.357808825993E+04    0.50904E+01   -0.16707E+01  5632   0.156E+00    0.654E+01
DAV:  20    -0.358069771054E+04   -0.26095E+01   -0.53633E+00  5760   0.108E+00    0.698E+01
DAV:  21    -0.358052186181E+04    0.17585E+00   -0.33224E-01  5632   0.584E-01    0.692E+01
DAV:  22    -0.358111793817E+04   -0.59608E+00   -0.27807E+00  6016   0.524E-01    0.720E+01
DAV:  23    -0.358234110971E+04   -0.12232E+01   -0.78903E+00  5632   0.618E-01    0.770E+01
DAV:  24    -0.357826649592E+04    0.40746E+01   -0.71867E+00  5632   0.109E+00    0.696E+01
DAV:  25    -0.357884296200E+04   -0.57647E+00   -0.10909E+00  5632   0.693E-01    0.707E+01
DAV:  26    -0.357999891544E+04   -0.11560E+01   -0.10986E+01  5760   0.983E-01    0.775E+01
DAV:  27    -0.357895536408E+04    0.10436E+01   -0.14039E+01  5632   0.138E+00    0.649E+01
DAV:  28    -0.357852051436E+04    0.43485E+00   -0.43307E+00  5632   0.935E-01    0.675E+01
DAV:  29    -0.357871703327E+04   -0.19652E+00   -0.33535E+00  5632   0.925E-01    0.708E+01
DAV:  30    -0.357972152093E+04   -0.10045E+01   -0.52601E+01  5760   0.164E+00    0.756E+01
DAV:  31    -0.357654612364E+04    0.31754E+01   -0.12930E+01  5632   0.160E+00    0.693E+01
DAV:  32    -0.357710356091E+04   -0.55744E+00   -0.83540E-01  5632   0.917E-01    0.710E+01
DAV:  33    -0.357516430878E+04    0.19393E+01   -0.79545E+00  5760   0.683E-01    0.673E+01
DAV:  34    -0.357432244740E+04    0.84186E+00   -0.15197E+01  5632   0.893E-01    0.672E+01
DAV:  35    -0.357426196477E+04    0.60483E-01   -0.65126E+00  5632   0.738E-01    0.674E+01
DAV:  36    -0.357538979330E+04   -0.11278E+01   -0.41869E+00  5632   0.787E-01    0.706E+01
DAV:  37    -0.357679251392E+04   -0.14027E+01   -0.18938E+00  5632   0.746E-01    0.725E+01
DAV:  38    -0.357640860856E+04    0.38391E+00   -0.44774E-01  5760   0.594E-01    0.734E+01
DAV:  39    -0.357603682142E+04    0.37179E+00   -0.59803E-01  5888   0.435E-01    0.741E+01
DAV:  40    -0.357620031088E+04   -0.16349E+00   -0.74704E-01  5760   0.474E-01    0.738E+01
DAV:  41    -0.357623410360E+04   -0.33793E-01   -0.86884E-01  5760   0.476E-01    0.753E+01
DAV:  42    -0.357306289462E+04    0.31712E+01   -0.68131E+00  5760   0.646E-01    0.673E+01
DAV:  43    -0.357293744441E+04    0.12545E+00   -0.23074E+00  5760   0.708E-01    0.654E+01
DAV:  44    -0.357272763791E+04    0.20981E+00   -0.50265E-01  5760   0.551E-01    0.636E+01
DAV:  45    -0.357262716792E+04    0.10047E+00   -0.65280E-01  5888   0.351E-01    0.635E+01
DAV:  46    -0.357254910504E+04    0.78063E-01   -0.23298E-01  5760   0.289E-01    0.626E+01
DAV:  47    -0.357244870386E+04    0.10040E+00   -0.19535E-01  5760   0.235E-01    0.633E+01
DAV:  48    -0.357163719983E+04    0.81150E+00   -0.31754E+00  6016   0.544E-01    0.593E+01
DAV:  49    -0.357248603274E+04   -0.84883E+00   -0.72734E-01  5632   0.542E-01    0.580E+01
DAV:  50    -0.357227153506E+04    0.21450E+00   -0.87049E-01  5888   0.528E-01    0.568E+01
DAV:  51    -0.357831127323E+04   -0.60397E+01   -0.45044E+01  6528   0.257E+00    0.683E+01
DAV:  52    -0.357412747919E+04    0.41838E+01   -0.48280E+01  6016   0.272E+00    0.582E+01
DAV:  53    -0.357450291274E+04   -0.37543E+00   -0.41631E+01  5888   0.232E+00    0.487E+01
DAV:  54    -0.357526341250E+04   -0.76050E+00   -0.73743E+00  6144   0.149E+00    0.520E+01
DAV:  55    -0.357666879164E+04   -0.14054E+01   -0.13942E+01  5888   0.132E+00    0.600E+01
DAV:  56    -0.357776841624E+04   -0.10996E+01   -0.26175E+01  5888   0.197E+00    0.541E+01
DAV:  57    -0.357871387925E+04   -0.94546E+00   -0.30250E+01  6016   0.206E+00    0.599E+01
DAV:  58    -0.357929849621E+04   -0.58462E+00   -0.59388E+00  5888   0.160E+00    0.588E+01
DAV:  59    -0.357881146476E+04    0.48703E+00   -0.10078E+01  5888   0.140E+00    0.525E+01
DAV:  60    -0.357700477023E+04    0.18067E+01   -0.74629E+00  5888   0.113E+00    0.479E+01
DAV:  61    -0.358784242740E+04   -0.10838E+02   -0.20156E+02  5888   0.409E+00    0.804E+01
DAV:  62    -0.357614617655E+04    0.11696E+02   -0.87798E+01  5760   0.360E+00    0.447E+01
DAV:  63    -0.357669710226E+04   -0.55093E+00   -0.37308E+00  6272   0.114E+00    0.419E+01
DAV:  64    -0.357685650990E+04   -0.15941E+00   -0.13578E+00  5888   0.643E-01    0.402E+01
DAV:  65    -0.357649304062E+04    0.36347E+00   -0.52681E-01  5632   0.594E-01    0.381E+01
DAV:  66    -0.358065024228E+04   -0.41572E+01   -0.60753E+00  5632   0.169E+00    0.379E+01
DAV:  67    -0.358248607906E+04   -0.18358E+01   -0.79889E+00  5760   0.122E+00    0.385E+01
DAV:  68    -0.358185064551E+04    0.63543E+00   -0.58594E+00  5760   0.109E+00    0.317E+01
DAV:  69    -0.358144003457E+04    0.41061E+00   -0.11475E+01  5888   0.102E+00    0.337E+01
DAV:  70    -0.358201486633E+04   -0.57483E+00   -0.46838E+00  5888   0.827E-01    0.301E+01
DAV:  71    -0.358606601807E+04   -0.40512E+01   -0.14777E+01  5760   0.185E+00    0.409E+01
DAV:  72    -0.358489125826E+04    0.11748E+01   -0.40227E+00  5760   0.118E+00    0.338E+01
DAV:  73    -0.358515860539E+04   -0.26735E+00   -0.33820E+00  6528   0.909E-01    0.317E+01
DAV:  74    -0.358539540489E+04   -0.23680E+00   -0.87340E-01  6016   0.647E-01    0.309E+01
DAV:  75    -0.358548115703E+04   -0.85752E-01   -0.48735E-01  6656   0.427E-01    0.294E+01
DAV:  76    -0.358837620175E+04   -0.28950E+01   -0.20771E+01  5888   0.188E+00    0.422E+01
DAV:  77    -0.358593859580E+04    0.24376E+01   -0.72822E+00  5632   0.137E+00    0.332E+01
DAV:  78    -0.358566183232E+04    0.27676E+00   -0.73233E-01  5632   0.542E-01    0.315E+01
DAV:  79    -0.358569912637E+04   -0.37294E-01   -0.23670E-01  6144   0.295E-01    0.307E+01
DAV:  80    -0.358577245651E+04   -0.73330E-01   -0.60444E-01  5760   0.489E-01    0.312E+01
DAV:  81    -0.359809883780E+04   -0.12326E+02   -0.88384E+01  6016   0.379E+00    0.637E+01
DAV:  82    -0.358627774097E+04    0.11821E+02   -0.21232E+01  5760   0.350E+00    0.353E+01
DAV:  83    -0.358873053175E+04   -0.24528E+01   -0.55057E+00  5888   0.131E+00    0.358E+01
DAV:  84    -0.358852398825E+04    0.20654E+00   -0.75648E+00  5888   0.926E-01    0.303E+01
DAV:  85    -0.358972241994E+04   -0.11984E+01   -0.32392E+00  5632   0.744E-01    0.301E+01
DAV:  86    -0.359088198398E+04   -0.11596E+01   -0.27320E+01  6016   0.202E+00    0.366E+01
DAV:  87    -0.359073530079E+04    0.14668E+00   -0.53541E+00  5632   0.113E+00    0.344E+01
DAV:  88    -0.358964704042E+04    0.10883E+01   -0.16369E+00  5632   0.745E-01    0.306E+01
DAV:  89    -0.359053792574E+04   -0.89089E+00   -0.30566E+00  6144   0.573E-01    0.302E+01
DAV:  90    -0.359013597397E+04    0.40195E+00   -0.24631E+00  5888   0.690E-01    0.294E+01
DAV:  91    -0.358913604482E+04    0.99993E+00   -0.22543E+01  5888   0.156E+00    0.295E+01
DAV:  92    -0.358903432309E+04    0.10172E+00   -0.29288E+00  5376   0.129E+00    0.274E+01
DAV:  93    -0.358525873131E+04    0.37756E+01   -0.37647E+00  6400   0.113E+00    0.269E+01
DAV:  94    -0.358511684335E+04    0.14189E+00   -0.35647E-01  5888   0.484E-01    0.266E+01
DAV:  95    -0.358412806530E+04    0.98878E+00   -0.47648E-01  6144   0.353E-01    0.284E+01
DAV:  96    -0.358252066202E+04    0.16074E+01   -0.84326E+00  6272   0.145E+00    0.345E+01
DAV:  97    -0.358090961888E+04    0.16110E+01   -0.43166E+00  5888   0.856E-01    0.362E+01
DAV:  98    -0.358073405115E+04    0.17557E+00   -0.52123E-01  6016   0.375E-01    0.341E+01
DAV:  99    -0.358074624997E+04   -0.12199E-01   -0.16547E-01  5632   0.222E-01    0.339E+01
DAV: 100    -0.358055450524E+04    0.19174E+00   -0.30542E-02  6016   0.127E-01    0.342E+01
DAV: 101    -0.358072907605E+04   -0.17457E+00   -0.37102E+00  6016   0.601E-01    0.314E+01
DAV: 102    -0.358182629494E+04   -0.10972E+01   -0.95001E-01  5888   0.707E-01    0.285E+01
DAV: 103    -0.358286323742E+04   -0.10369E+01   -0.75924E-01  6144   0.428E-01    0.286E+01
DAV: 104    -0.358291320686E+04   -0.49969E-01   -0.12089E-01  5632   0.291E-01    0.290E+01
DAV: 105    -0.358233358162E+04    0.57963E+00   -0.52924E-01  5888   0.334E-01    0.318E+01
DAV: 106    -0.358218659050E+04    0.14699E+00   -0.52927E+01  5760   0.280E+00    0.658E+01
DAV: 107    -0.357689517056E+04    0.52914E+01   -0.34227E+01  6016   0.163E+00    0.449E+01
DAV: 108    -0.357716272878E+04   -0.26756E+00   -0.30589E+00  6144   0.619E-01    0.371E+01
DAV: 109    -0.357789385131E+04   -0.73112E+00   -0.16483E+00  6144   0.688E-01    0.349E+01
DAV: 110    -0.357815601374E+04   -0.26216E+00   -0.34022E+00  5888   0.622E-01    0.407E+01
DAV: 111    -0.357801940575E+04    0.13661E+00   -0.48994E+00  5888   0.120E+00    0.415E+01
DAV: 112    -0.357658175649E+04    0.14376E+01   -0.93066E-01  6016   0.640E-01    0.402E+01
DAV: 113    -0.357680236619E+04   -0.22061E+00   -0.18701E-01  5888   0.329E-01    0.413E+01
DAV: 114    -0.357636534126E+04    0.43702E+00   -0.13775E-01  5888   0.250E-01    0.396E+01
DAV: 115    -0.357639180739E+04   -0.26466E-01   -0.93730E-01  5760   0.339E-01    0.348E+01
DAV: 116    -0.358075590920E+04   -0.43641E+01   -0.58266E+00  5888   0.110E+00    0.398E+01
DAV: 117    -0.358126611223E+04   -0.51020E+00   -0.57267E-01  5632   0.492E-01    0.406E+01
DAV: 118    -0.358081691030E+04    0.44920E+00   -0.47019E-01  6144   0.343E-01    0.386E+01
DAV: 119    -0.357989951875E+04    0.91739E+00   -0.11363E+00  6016   0.539E-01    0.379E+01
DAV: 120    -0.357968848907E+04    0.21103E+00   -0.12113E-01  5632   0.293E-01    0.375E+01
DAV: 121    -0.358685905959E+04   -0.71706E+01   -0.38465E+01  6144   0.224E+00    0.329E+01
DAV: 122    -0.358694418781E+04   -0.85128E-01   -0.12252E+01  5888   0.128E+00    0.290E+01
DAV: 123    -0.358832879884E+04   -0.13846E+01   -0.69590E+00  5888   0.955E-01    0.282E+01
DAV: 124    -0.358859905787E+04   -0.27026E+00   -0.89209E-01  6400   0.572E-01    0.272E+01
DAV: 125    -0.358972050654E+04   -0.11214E+01   -0.15598E+00  6016   0.687E-01    0.272E+01
DAV: 126    -0.359025072744E+04   -0.53022E+00   -0.49628E+01  6272   0.341E+00    0.495E+01
DAV: 127    -0.358526334466E+04    0.49874E+01   -0.22392E+01  5888   0.213E+00    0.269E+01
DAV: 128    -0.358506474751E+04    0.19860E+00   -0.30084E+00  6016   0.103E+00    0.311E+01
DAV: 129    -0.358491264766E+04    0.15210E+00   -0.14142E-01  5632   0.328E-01    0.319E+01
DAV: 130    -0.358552134090E+04   -0.60869E+00   -0.13128E-01  6144   0.213E-01    0.328E+01
DAV: 131    -0.359286445012E+04   -0.73431E+01   -0.17431E+01  5888   0.213E+00    0.311E+01
DAV: 132    -0.359514451528E+04   -0.22801E+01   -0.20181E+01  6272   0.125E+00    0.334E+01
DAV: 133    -0.359454414294E+04    0.60037E+00   -0.72596E+00  6016   0.132E+00    0.268E+01
DAV: 134    -0.359564412868E+04   -0.11000E+01   -0.12710E+00  5760   0.755E-01    0.284E+01
DAV: 135    -0.359558275528E+04    0.61373E-01   -0.47845E-01  6016   0.617E-01    0.275E+01
DAV: 136    -0.359641106491E+04   -0.82831E+00   -0.77550E+00  5888   0.137E+00    0.289E+01
DAV: 137    -0.359621448258E+04    0.19658E+00   -0.65082E-01  5760   0.911E-01    0.285E+01
DAV: 138    -0.359611806497E+04    0.96418E-01   -0.35046E+00  6528   0.729E-01    0.343E+01
DAV: 139    -0.359562023439E+04    0.49783E+00   -0.30110E-01  5632   0.588E-01    0.335E+01
DAV: 140    -0.359572764164E+04   -0.10741E+00   -0.36551E-01  5888   0.379E-01    0.342E+01
DAV: 141    -0.359618022843E+04   -0.45259E+00   -0.37921E+00  5632   0.838E-01    0.329E+01
DAV: 142    -0.359517200009E+04    0.10082E+01   -0.44994E+00  5632   0.857E-01    0.339E+01
DAV: 143    -0.359425654885E+04    0.91545E+00   -0.45093E-01  5888   0.609E-01    0.328E+01
DAV: 144    -0.359327254205E+04    0.98401E+00   -0.48541E-01  6272   0.315E-01    0.307E+01
DAV: 145    -0.359328910602E+04   -0.16564E-01   -0.68282E-02  5760   0.236E-01    0.308E+01
DAV: 146    -0.359327611697E+04    0.12989E-01   -0.17792E+00  5888   0.607E-01    0.287E+01
DAV: 147    -0.359368683734E+04   -0.41072E+00   -0.38650E-01  5632   0.462E-01    0.280E+01
DAV: 148    -0.359410366276E+04   -0.41683E+00   -0.79327E-01  5632   0.404E-01    0.307E+01
DAV: 149    -0.359380503310E+04    0.29863E+00   -0.10804E-01  5760   0.347E-01    0.312E+01
DAV: 150    -0.359351536138E+04    0.28967E+00   -0.56087E-02  5888   0.183E-01    0.314E+01
DAV: 151    -0.359392405578E+04   -0.40869E+00   -0.13440E+01  5888   0.138E+00    0.480E+01
DAV: 152    -0.359009039252E+04    0.38337E+01   -0.12329E+01  5632   0.134E+00    0.322E+01
DAV: 153    -0.358935475967E+04    0.73563E+00   -0.10576E+00  6144   0.649E-01    0.338E+01
DAV: 154    -0.358889376064E+04    0.46100E+00   -0.18335E-01  6272   0.517E-01    0.326E+01
DAV: 155    -0.358857063824E+04    0.32312E+00   -0.92714E-01  6272   0.749E-01    0.336E+01
DAV: 156    -0.359528997416E+04   -0.67193E+01   -0.22554E+01  6144   0.253E+00    0.442E+01
DAV: 157    -0.359307862220E+04    0.22114E+01   -0.10558E+01  6144   0.135E+00    0.306E+01
DAV: 158    -0.359296825631E+04    0.11037E+00   -0.59432E+00  5888   0.852E-01    0.309E+01
DAV: 159    -0.359183694260E+04    0.11313E+01   -0.15502E+00  6016   0.102E+00    0.331E+01
DAV: 160    -0.359153227514E+04    0.30467E+00   -0.63162E-01  6400   0.657E-01    0.347E+01
DAV: 161    -0.359631199498E+04   -0.47797E+01   -0.14761E+01  6016   0.181E+00    0.379E+01
DAV: 162    -0.359437539221E+04    0.19366E+01   -0.50326E+00  6016   0.123E+00    0.304E+01
DAV: 163    -0.359390408401E+04    0.47131E+00   -0.11627E+00  6144   0.795E-01    0.269E+01
DAV: 164    -0.359407210549E+04   -0.16802E+00   -0.13844E+00  6144   0.779E-01    0.251E+01
DAV: 165    -0.359377406753E+04    0.29804E+00   -0.23796E-01  5888   0.378E-01    0.264E+01
DAV: 166    -0.359301548896E+04    0.75858E+00   -0.39050E+00  6272   0.104E+00    0.210E+01
DAV: 167    -0.359502237299E+04   -0.20069E+01   -0.93633E+00  6016   0.932E-01    0.246E+01
DAV: 168    -0.359457221002E+04    0.45016E+00   -0.43916E-01  6016   0.611E-01    0.244E+01
DAV: 169    -0.359476824068E+04   -0.19603E+00   -0.18505E-01  6272   0.233E-01    0.252E+01
DAV: 170    -0.359468765504E+04    0.80586E-01   -0.28395E-02  5632   0.202E-01    0.271E+01
DAV: 171    -0.360562090355E+04   -0.10933E+02   -0.61384E+01  6016   0.486E+00    0.667E+01
DAV: 172    -0.359784571191E+04    0.77752E+01   -0.42637E+01  5888   0.260E+00    0.260E+01
DAV: 173    -0.359874466737E+04   -0.89896E+00   -0.48385E+00  6016   0.120E+00    0.264E+01
DAV: 174    -0.359942424262E+04   -0.67958E+00   -0.77286E+00  6016   0.983E-01    0.307E+01
DAV: 175    -0.359942148263E+04    0.27600E-02   -0.27385E-01  6016   0.427E-01    0.311E+01
DAV: 176    -0.359973982527E+04   -0.31834E+00   -0.24077E-01  5760   0.528E-01    0.303E+01
DAV: 177    -0.359996386467E+04   -0.22404E+00   -0.14427E-01  6272   0.249E-01    0.299E+01
DAV: 178    -0.360013659416E+04   -0.17273E+00   -0.30557E-02  5760   0.165E-01    0.298E+01
DAV: 179    -0.360009197342E+04    0.44621E-01   -0.14033E-01  5760   0.226E-01    0.292E+01
DAV: 180    -0.359993941699E+04    0.15256E+00   -0.18526E-01  6016   0.253E-01    0.295E+01
DAV: 181    -0.360156110618E+04   -0.16217E+01   -0.55389E+00  5888   0.106E+00    0.434E+01
DAV: 182    -0.360123073544E+04    0.33037E+00   -0.22136E-01  5632   0.466E-01    0.435E+01
DAV: 183    -0.360114433607E+04    0.86399E-01   -0.12023E-02  6272   0.915E-02    0.437E+01
DAV: 184    -0.360117905349E+04   -0.34717E-01   -0.51907E-03  5888   0.609E-02    0.439E+01
DAV: 185    -0.360119031494E+04   -0.11261E-01   -0.12592E-03  5888   0.275E-02    0.439E+01
DAV: 186    -0.360084016600E+04    0.35015E+00   -0.12049E+01  6016   0.116E+00    0.369E+01
DAV: 187    -0.360140574948E+04   -0.56558E+00   -0.99965E+00  5888   0.110E+00    0.371E+01
DAV: 188    -0.360046071954E+04    0.94503E+00   -0.66635E+00  5760   0.833E-01    0.329E+01
DAV: 189    -0.360034347588E+04    0.11724E+00   -0.13359E+00  5632   0.348E-01    0.344E+01
DAV: 190    -0.360037591875E+04   -0.32443E-01   -0.94010E-02  5888   0.203E-01    0.348E+01
DAV: 191    -0.360059565265E+04   -0.21973E+00   -0.54739E+01  6144   0.335E+00    0.461E+01
DAV: 192    -0.359860298360E+04    0.19927E+01   -0.70451E+01  6272   0.253E+00    0.203E+01
DAV: 193    -0.359888336650E+04   -0.28038E+00   -0.34714E+00  6016   0.963E-01    0.218E+01
DAV: 194    -0.359946177853E+04   -0.57841E+00   -0.63299E-01  5632   0.688E-01    0.218E+01
DAV: 195    -0.359943025036E+04    0.31528E-01   -0.70847E-02  6016   0.246E-01    0.218E+01
DAV: 196    -0.359915527659E+04    0.27497E+00   -0.17424E-01  6144   0.284E-01    0.216E+01
DAV: 197    -0.359910263240E+04    0.52644E-01   -0.86561E-02  6016   0.242E-01    0.226E+01
DAV: 198    -0.359906471165E+04    0.37921E-01   -0.27503E-02  5632   0.191E-01    0.230E+01
DAV: 199    -0.359891880981E+04    0.14590E+00   -0.31343E-01  6272   0.425E-01    0.212E+01
DAV: 200    -0.359905114676E+04   -0.13234E+00   -0.35065E-01  6016   0.392E-01    0.206E+01
DAV: 201    -0.359892432023E+04    0.12683E+00   -0.10348E+00  6144   0.590E-01    0.213E+01
DAV: 202    -0.359919210440E+04   -0.26778E+00   -0.25486E-01  5760   0.367E-01    0.212E+01
DAV: 203    -0.359940150009E+04   -0.20940E+00   -0.16071E-01  5888   0.284E-01    0.237E+01
DAV: 204    -0.359941347256E+04   -0.11972E-01   -0.15421E-01  5760   0.223E-01    0.260E+01
DAV: 205    -0.359957653954E+04   -0.16307E+00   -0.45777E-01  6144   0.495E-01    0.260E+01
DAV: 206    -0.360133954662E+04   -0.17630E+01   -0.13416E+01  6272   0.200E+00    0.351E+01
DAV: 207    -0.359939983681E+04    0.19397E+01   -0.14983E+01  5760   0.138E+00    0.265E+01
DAV: 208    -0.359921768324E+04    0.18215E+00   -0.17600E+00  6144   0.633E-01    0.214E+01
DAV: 209    -0.359961001519E+04   -0.39233E+00   -0.27173E-01  5888   0.445E-01    0.202E+01
DAV: 210    -0.359967826746E+04   -0.68252E-01   -0.35082E-02  5760   0.188E-01    0.200E+01
DAV: 211    -0.361503877700E+04   -0.15361E+02   -0.14352E+02  6528   0.417E+00    0.576E+01
DAV: 212    -0.360040548906E+04    0.14633E+02   -0.13309E+01  5888   0.318E+00    0.287E+01
DAV: 213    -0.360005121108E+04    0.35428E+00   -0.35784E+00  6272   0.952E-01    0.220E+01
DAV: 214    -0.360070291211E+04   -0.65170E+00   -0.15196E+00  5760   0.628E-01    0.231E+01
DAV: 215    -0.360082534960E+04   -0.12244E+00   -0.25600E-01  6144   0.232E-01    0.226E+01
DAV: 216    -0.360079017082E+04    0.35179E-01   -0.42885E-01  6272   0.688E-01    0.224E+01
DAV: 217    -0.360072308448E+04    0.67086E-01   -0.29774E-01  6656   0.358E-01    0.228E+01
DAV: 218    -0.360085844973E+04   -0.13537E+00   -0.39824E-01  6016   0.460E-01    0.222E+01
DAV: 219    -0.360123402833E+04   -0.37558E+00   -0.14381E+00  6784   0.629E-01    0.213E+01
DAV: 220    -0.360208252248E+04   -0.84849E+00   -0.58077E+00  6784   0.878E-01    0.354E+01
DAV: 221    -0.360244725160E+04   -0.36473E+00   -0.77480E+00  6016   0.929E-01    0.378E+01
DAV: 222    -0.360200040598E+04    0.44685E+00   -0.34997E-01  5632   0.505E-01    0.353E+01
DAV: 223    -0.360201509514E+04   -0.14689E-01   -0.36309E-02  6272   0.169E-01    0.344E+01
DAV: 224    -0.360222652100E+04   -0.21143E+00   -0.14860E-01  5632   0.186E-01    0.359E+01
DAV: 225    -0.360225024739E+04   -0.23726E-01   -0.62797E-02  5632   0.121E-01    0.372E+01
DAV: 226    -0.360215332439E+04    0.96923E-01   -0.19190E-01  6272   0.391E-01    0.390E+01
DAV: 227    -0.360256224316E+04   -0.40892E+00   -0.88491E-02  6272   0.234E-01    0.395E+01
DAV: 228    -0.360219062018E+04    0.37162E+00   -0.11848E-01  5760   0.190E-01    0.393E+01
DAV: 229    -0.360212657405E+04    0.64046E-01   -0.42033E-02  5888   0.105E-01    0.392E+01
DAV: 230    -0.360210737567E+04    0.19198E-01   -0.10978E-02  6016   0.395E-02    0.392E+01
DAV: 231    -0.360125256560E+04    0.85481E+00   -0.79079E+00  6272   0.102E+00    0.225E+01
DAV: 232    -0.360189261475E+04   -0.64005E+00   -0.10900E+00  5632   0.769E-01    0.205E+01
DAV: 233    -0.360213542353E+04   -0.24281E+00   -0.11687E-01  6272   0.409E-01    0.203E+01
DAV: 234    -0.360220625890E+04   -0.70835E-01   -0.56838E-02  6400   0.223E-01    0.205E+01
DAV: 235    -0.360241404799E+04   -0.20779E+00   -0.14914E+00  6656   0.531E-01    0.263E+01
DAV: 236    -0.360185340650E+04    0.56064E+00   -0.49190E+00  6144   0.153E+00    0.247E+01
DAV: 237    -0.360144413272E+04    0.40927E+00   -0.23434E+00  6016   0.892E-01    0.202E+01
DAV: 238    -0.360141831881E+04    0.25814E-01   -0.52023E-01  5888   0.509E-01    0.195E+01
DAV: 239    -0.360154746897E+04   -0.12915E+00   -0.19511E+00  6400   0.647E-01    0.179E+01
DAV: 240    -0.360174514191E+04   -0.19767E+00   -0.56761E-01  5632   0.515E-01    0.161E+01
DAV: 241    -0.360154852722E+04    0.19661E+00   -0.23291E+00  5760   0.821E-01    0.199E+01
DAV: 242    -0.360157831718E+04   -0.29790E-01   -0.38082E-01  5760   0.427E-01    0.193E+01
DAV: 243    -0.360164958184E+04   -0.71265E-01   -0.25340E-01  6016   0.283E-01    0.210E+01
DAV: 244    -0.360160252785E+04    0.47054E-01   -0.59689E-02  5632   0.233E-01    0.213E+01
DAV: 245    -0.360154787300E+04    0.54655E-01   -0.13772E-02  6272   0.105E-01    0.212E+01
DAV: 246    -0.360200539485E+04   -0.45752E+00   -0.31251E+01  6016   0.266E+00    0.352E+01
DAV: 247    -0.360074562288E+04    0.12598E+01   -0.73238E+00  5760   0.117E+00    0.263E+01
DAV: 248    -0.360126458046E+04   -0.51896E+00   -0.11012E+00  5504   0.576E-01    0.286E+01
DAV: 249    -0.360101663552E+04    0.24794E+00   -0.13959E+00  5632   0.428E-01    0.256E+01
DAV: 250    -0.360111893203E+04   -0.10230E+00   -0.68300E-02  5632   0.235E-01    0.250E+01
DAV: 251    -0.360105215389E+04    0.66778E-01   -0.25504E+00  5888   0.591E-01    0.227E+01
DAV: 252    -0.360042929813E+04    0.62286E+00   -0.39449E+00  5760   0.888E-01    0.187E+01
DAV: 253    -0.359967586438E+04    0.75343E+00   -0.26764E+00  6016   0.751E-01    0.169E+01
DAV: 254    -0.359951179868E+04    0.16407E+00   -0.22930E+00  6016   0.589E-01    0.164E+01
DAV: 255    -0.359953404231E+04   -0.22244E-01   -0.90088E-02  5632   0.296E-01    0.169E+01
DAV: 256    -0.359967048191E+04   -0.13644E+00   -0.10552E+01  6016   0.146E+00    0.185E+01
DAV: 257    -0.360060576779E+04   -0.93529E+00   -0.28755E+00  5632   0.732E-01    0.185E+01
DAV: 258    -0.359969905324E+04    0.90671E+00   -0.21571E+00  6144   0.654E-01    0.211E+01
DAV: 259    -0.359979540573E+04   -0.96352E-01   -0.11055E-01  5632   0.294E-01    0.210E+01
DAV: 260    -0.359960247171E+04    0.19293E+00   -0.10735E-01  6400   0.249E-01    0.208E+01
DAV: 261    -0.359872171982E+04    0.88075E+00   -0.51674E+00  5632   0.107E+00    0.206E+01
DAV: 262    -0.359723289388E+04    0.14888E+01   -0.82519E-01  6144   0.652E-01    0.206E+01
DAV: 263    -0.359688131431E+04    0.35158E+00   -0.79514E-02  6272   0.203E-01    0.205E+01
DAV: 264    -0.359628678488E+04    0.59453E+00   -0.12823E-01  5888   0.228E-01    0.193E+01
DAV: 265    -0.359421027614E+04    0.20765E+01   -0.10576E+00  5632   0.582E-01    0.205E+01
DAV: 266    -0.359657648167E+04   -0.23662E+01   -0.12550E+00  5632   0.105E+00    0.203E+01
DAV: 267    -0.359627128179E+04    0.30520E+00   -0.11116E+00  6272   0.639E-01    0.203E+01
DAV: 268    -0.359633427429E+04   -0.62992E-01   -0.14974E-01  5632   0.296E-01    0.206E+01
DAV: 269    -0.359622099696E+04    0.11328E+00   -0.18767E-02  5888   0.129E-01    0.208E+01
DAV: 270    -0.359621322414E+04    0.77728E-02   -0.34374E-03  5888   0.492E-02    0.208E+01
DAV: 271    -0.360151697402E+04   -0.53037E+01   -0.95782E+00  6016   0.186E+00    0.172E+01
DAV: 272    -0.360191574857E+04   -0.39877E+00   -0.34081E+00  5888   0.998E-01    0.216E+01
DAV: 273    -0.360162902649E+04    0.28672E+00   -0.20171E-01  6144   0.359E-01    0.213E+01
DAV: 274    -0.360126872850E+04    0.36030E+00   -0.26473E+00  5760   0.505E-01    0.195E+01
DAV: 275    -0.360201932880E+04   -0.75060E+00   -0.14677E+00  5632   0.524E-01    0.209E+01
DAV: 276    -0.360227708015E+04   -0.25775E+00   -0.28051E+00  5760   0.597E-01    0.243E+01
DAV: 277    -0.360226664883E+04    0.10431E-01   -0.93870E-02  5632   0.259E-01    0.241E+01
DAV: 278    -0.360224697149E+04    0.19677E-01   -0.63442E-03  6144   0.711E-02    0.241E+01
DAV: 279    -0.360210893314E+04    0.13804E+00   -0.18273E-01  5760   0.166E-01    0.242E+01
DAV: 280    -0.360193375025E+04    0.17518E+00   -0.50504E-01  6144   0.372E-01    0.238E+01
DAV: 281    -0.360196297134E+04   -0.29221E-01   -0.15432E+00  5760   0.469E-01    0.193E+01
DAV: 282    -0.360255838297E+04   -0.59541E+00   -0.31098E-01  5760   0.375E-01    0.189E+01
DAV: 283    -0.360279254030E+04   -0.23416E+00   -0.41204E-01  5888   0.407E-01    0.181E+01
DAV: 284    -0.360315026785E+04   -0.35773E+00   -0.19440E-01  5760   0.351E-01    0.180E+01
DAV: 285    -0.360359168121E+04   -0.44141E+00   -0.44222E-01  5888   0.525E-01    0.183E+01
DAV: 286    -0.360880155243E+04   -0.52099E+01   -0.13104E+02  5888   0.397E+00    0.530E+01
DAV: 287    -0.360405137240E+04    0.47502E+01   -0.58134E+01  6016   0.338E+00    0.177E+01
DAV: 288    -0.360467953453E+04   -0.62816E+00   -0.12723E+00  5888   0.788E-01    0.166E+01
DAV: 289    -0.360514307733E+04   -0.46354E+00   -0.76455E-01  6272   0.673E-01    0.146E+01
DAV: 290    -0.360526297026E+04   -0.11989E+00   -0.13785E-01  5888   0.294E-01    0.144E+01
DAV: 291    -0.360531115454E+04   -0.48184E-01   -0.31572E-01  6144   0.593E-01    0.163E+01
DAV: 292    -0.360536423855E+04   -0.53084E-01   -0.70989E-01  5888   0.622E-01    0.180E+01
DAV: 293    -0.360531310873E+04    0.51130E-01   -0.38073E-01  6272   0.514E-01    0.178E+01
DAV: 294    -0.360524158509E+04    0.71524E-01   -0.16185E-01  6272   0.373E-01    0.184E+01
DAV: 295    -0.360527818388E+04   -0.36599E-01   -0.40952E-02  5632   0.216E-01    0.193E+01
DAV: 296    -0.360569704574E+04   -0.41886E+00   -0.27558E+00  6016   0.933E-01    0.208E+01
DAV: 297    -0.360523024309E+04    0.46680E+00   -0.12557E+00  5888   0.775E-01    0.182E+01
DAV: 298    -0.360500137210E+04    0.22887E+00   -0.17395E-01  6400   0.396E-01    0.162E+01
DAV: 299    -0.360547448237E+04   -0.47311E+00   -0.93947E+00  6528   0.946E-01    0.163E+01
DAV: 300    -0.360542951668E+04    0.44966E-01   -0.27956E-01  5632   0.352E-01    0.178E+01
DAV: 301    -0.360591308082E+04   -0.48356E+00   -0.23696E+00  6528   0.737E-01    0.197E+01
DAV: 302    -0.360546913452E+04    0.44395E+00   -0.39719E-01  5760   0.552E-01    0.188E+01
DAV: 303    -0.360503444565E+04    0.43469E+00   -0.30120E+00  6272   0.641E-01    0.106E+01
DAV: 304    -0.360518696801E+04   -0.15252E+00   -0.86463E-01  5632   0.483E-01    0.102E+01
DAV: 305    -0.360538093502E+04   -0.19397E+00   -0.15919E-01  6016   0.289E-01    0.149E+01
DAV: 306    -0.360528133441E+04    0.99601E-01   -0.10490E+00  6016   0.626E-01    0.136E+01
DAV: 307    -0.360529583556E+04   -0.14501E-01   -0.35402E-01  5888   0.417E-01    0.127E+01
DAV: 308    -0.360539239833E+04   -0.96563E-01   -0.28851E-01  6528   0.385E-01    0.137E+01
DAV: 309    -0.360530303980E+04    0.89359E-01   -0.72454E-01  6016   0.297E-01    0.128E+01
DAV: 310    -0.360541656292E+04   -0.11352E+00   -0.33976E-01  5888   0.300E-01    0.151E+01
DAV: 311    -0.360528698294E+04    0.12958E+00   -0.13906E+00  5888   0.460E-01    0.113E+01
DAV: 312    -0.360544217495E+04   -0.15519E+00   -0.53639E-01  5888   0.449E-01    0.127E+01
DAV: 313    -0.360548201512E+04   -0.39840E-01   -0.54182E-01  6016   0.403E-01    0.127E+01
DAV: 314    -0.360559197613E+04   -0.10996E+00   -0.61495E-02  6400   0.165E-01    0.127E+01
DAV: 315    -0.360574233130E+04   -0.15036E+00   -0.23712E-01  6016   0.167E-01    0.146E+01
DAV: 316    -0.360573325057E+04    0.90807E-02   -0.69885E-02  5760   0.200E-01    0.151E+01
DAV: 317    -0.360571293637E+04    0.20314E-01   -0.15749E-02  5760   0.117E-01    0.150E+01
DAV: 318    -0.360571156264E+04    0.13737E-02   -0.97666E-03  6144   0.629E-02    0.150E+01
DAV: 319    -0.360570045256E+04    0.11110E-01   -0.16382E-02  6016   0.891E-02    0.150E+01
DAV: 320    -0.360568211373E+04    0.18339E-01   -0.60314E-03  6144   0.593E-02    0.150E+01
DAV: 321    -0.360584894426E+04   -0.16683E+00   -0.98347E-01  6144   0.488E-01    0.167E+01
DAV: 322    -0.360590127355E+04   -0.52329E-01   -0.81578E-02  5888   0.229E-01    0.168E+01
DAV: 323    -0.360589859420E+04    0.26794E-02   -0.52166E-03  6144   0.621E-02    0.168E+01
DAV: 324    -0.360584982454E+04    0.48770E-01   -0.98211E-02  6016   0.193E-01    0.163E+01
DAV: 325    -0.360562727982E+04    0.22254E+00   -0.16741E-01  6656   0.278E-01    0.159E+01
DAV: 326    -0.360536453523E+04    0.26274E+00   -0.40086E+00  6144   0.611E-01    0.115E+01
DAV: 327    -0.360546369751E+04   -0.99162E-01   -0.30709E+00  5632   0.388E-01    0.103E+01
DAV: 328    -0.360584473016E+04   -0.38103E+00   -0.15516E+00  5760   0.343E-01    0.121E+01
DAV: 329    -0.360554593185E+04    0.29880E+00   -0.12517E-01  5632   0.302E-01    0.129E+01
DAV: 330    -0.360558358061E+04   -0.37649E-01   -0.17518E-02  5760   0.110E-01    0.127E+01
DAV: 331    -0.360569622400E+04   -0.11264E+00   -0.10725E+00  6016   0.789E-01    0.128E+01
DAV: 332    -0.360523937026E+04    0.45685E+00   -0.57858E-01  5888   0.458E-01    0.708E+00
DAV: 333    -0.360575834035E+04   -0.51897E+00   -0.17810E-01  6016   0.445E-01    0.641E+00
DAV: 334    -0.360593929328E+04   -0.18095E+00   -0.13791E-01  6144   0.414E-01    0.582E+00
DAV: 335    -0.360604769687E+04   -0.10840E+00   -0.20074E-01  5760   0.373E-01    0.541E+00
DAV: 336    -0.360622908096E+04   -0.18138E+00   -0.18234E+00  5760   0.828E-01    0.159E+01
DAV: 337    -0.360612389508E+04    0.10519E+00   -0.23028E-01  5760   0.371E-01    0.155E+01
DAV: 338    -0.360615338958E+04   -0.29494E-01   -0.47908E-02  6144   0.143E-01    0.158E+01
DAV: 339    -0.360611960891E+04    0.33781E-01   -0.19188E-02  5888   0.100E-01    0.150E+01
DAV: 340    -0.360611379250E+04    0.58164E-02   -0.10877E-02  5632   0.687E-02    0.146E+01
DAV: 341    -0.360682777705E+04   -0.71398E+00   -0.21623E+00  5760   0.566E-01    0.148E+01
DAV: 342    -0.360687531813E+04   -0.47541E-01   -0.27666E-01  5888   0.333E-01    0.150E+01
DAV: 343    -0.360693189854E+04   -0.56580E-01   -0.87334E-02  5760   0.178E-01    0.152E+01
DAV: 344    -0.360690423865E+04    0.27660E-01   -0.14696E-01  5632   0.211E-01    0.148E+01
DAV: 345    -0.360691996413E+04   -0.15725E-01   -0.60285E-02  5888   0.121E-01    0.148E+01
DAV: 346    -0.360689565561E+04    0.24309E-01   -0.63020E-02  5760   0.184E-01    0.148E+01
DAV: 347    -0.360689765792E+04   -0.20023E-02   -0.88971E-03  5760   0.801E-02    0.150E+01
DAV: 348    -0.360691131996E+04   -0.13662E-01   -0.44352E-03  5632   0.562E-02    0.150E+01
DAV: 349    -0.360688779310E+04    0.23527E-01   -0.30755E-03  5632   0.425E-02    0.149E+01
DAV: 350    -0.360671478406E+04    0.17301E+00   -0.93961E-02  5632   0.167E-01    0.149E+01
DAV: 351    -0.360646023458E+04    0.25455E+00   -0.28483E-01  5632   0.267E-01    0.136E+01
DAV: 352    -0.360626894297E+04    0.19129E+00   -0.21383E-01  5632   0.253E-01    0.116E+01
DAV: 353    -0.360627720597E+04   -0.82630E-02   -0.44050E-02  5632   0.171E-01    0.115E+01
DAV: 354    -0.360618411240E+04    0.93094E-01   -0.34720E-02  5888   0.158E-01    0.114E+01
DAV: 355    -0.360617367471E+04    0.10438E-01   -0.83791E-02  6272   0.274E-01    0.113E+01
DAV: 356    -0.360630072139E+04   -0.12705E+00   -0.22038E-01  5760   0.463E-01    0.113E+01
DAV: 357    -0.360635720200E+04   -0.56481E-01   -0.60788E-02  5888   0.185E-01    0.113E+01
DAV: 358    -0.360651786741E+04   -0.16067E+00   -0.14667E-01  6016   0.273E-01    0.119E+01
DAV: 359    -0.360652152938E+04   -0.36620E-02   -0.19704E-02  5888   0.973E-02    0.123E+01
DAV: 360    -0.360679691953E+04   -0.27539E+00   -0.72040E-01  5632   0.223E-01    0.174E+01
DAV: 361    -0.360671296097E+04    0.83959E-01   -0.76155E-02  5632   0.251E-01    0.183E+01
DAV: 362    -0.360703216181E+04   -0.31920E+00   -0.12274E+00  5632   0.202E-01    0.263E+01
DAV: 363    -0.360740598423E+04   -0.37382E+00   -0.49678E-01  5632   0.389E-01    0.297E+01
DAV: 364    -0.360738556963E+04    0.20415E-01   -0.47923E-02  5888   0.190E-01    0.319E+01
DAV: 365    -0.360731350094E+04    0.72069E-01   -0.30643E-02  5632   0.127E-01    0.321E+01
DAV: 366    -0.360836800438E+04   -0.10545E+01   -0.48266E+00  5760   0.540E-01    0.363E+01
DAV: 367    -0.360824708272E+04    0.12092E+00   -0.17578E-01  5760   0.211E-01    0.376E+01
DAV: 368    -0.360803901276E+04    0.20807E+00   -0.79290E-02  5632   0.177E-01    0.383E+01
DAV: 369    -0.360799012695E+04    0.48886E-01   -0.12575E-02  5888   0.884E-02    0.383E+01
DAV: 370    -0.360802507226E+04   -0.34945E-01   -0.10666E-02  5888   0.674E-02    0.384E+01
DAV: 371    -0.360739500092E+04    0.63007E+00   -0.53478E+00  5376   0.745E-01    0.419E+01
DAV: 372    -0.360614272906E+04    0.12523E+01   -0.19573E-01  5888   0.377E-01    0.403E+01
DAV: 373    -0.360617822932E+04   -0.35500E-01   -0.21436E-02  6016   0.103E-01    0.393E+01
DAV: 374    -0.360652857313E+04   -0.35034E+00   -0.23229E-02  5760   0.103E-01    0.409E+01
DAV: 375    -0.360633432634E+04    0.19425E+00   -0.20591E-02  5632   0.110E-01    0.413E+01
DAV: 376    -0.360495844344E+04    0.13759E+01   -0.77750E+00  5632   0.946E-01    0.198E+01
DAV: 377    -0.360566338276E+04   -0.70494E+00   -0.14211E+00  5632   0.513E-01    0.131E+01
DAV: 378    -0.360552267986E+04    0.14070E+00   -0.31074E-01  6016   0.425E-01    0.124E+01
DAV: 379    -0.360573182030E+04   -0.20914E+00   -0.75083E-02  5632   0.210E-01    0.118E+01
DAV: 380    -0.360587139272E+04   -0.13957E+00   -0.15527E-01  5632   0.283E-01    0.114E+01
DAV: 381    -0.361298214451E+04   -0.71108E+01   -0.85011E+01  5888   0.585E+00    0.514E+01
DAV: 382    -0.360684381236E+04    0.61383E+01   -0.59912E+01  5760   0.516E+00    0.155E+01
DAV: 383    -0.360739002425E+04   -0.54621E+00   -0.20998E+00  6144   0.108E+00    0.121E+01
DAV: 384    -0.360811787665E+04   -0.72785E+00   -0.22471E+00  6656   0.669E-01    0.143E+01
DAV: 385    -0.360812464111E+04   -0.67645E-02   -0.15064E-01  5632   0.348E-01    0.142E+01
DAV: 386    -0.360752959219E+04    0.59505E+00   -0.18943E+00  6144   0.845E-01    0.173E+01
DAV: 387    -0.360773447467E+04   -0.20488E+00   -0.32440E-01  5632   0.545E-01    0.169E+01
DAV: 388    -0.360783641356E+04   -0.10194E+00   -0.50505E+00  5760   0.794E-01    0.227E+01
DAV: 389    -0.360769097690E+04    0.14544E+00   -0.47695E-01  5760   0.416E-01    0.232E+01
DAV: 390    -0.360765386085E+04    0.37116E-01   -0.35033E-02  6272   0.139E-01    0.228E+01
DAV: 391    -0.360766322041E+04   -0.93596E-02   -0.10875E+00  6016   0.467E-01    0.139E+01
DAV: 392    -0.360764265644E+04    0.20564E-01   -0.48631E-01  5760   0.510E-01    0.147E+01
DAV: 393    -0.360781672108E+04   -0.17406E+00   -0.58010E-02  5632   0.245E-01    0.144E+01
DAV: 394    -0.360766914405E+04    0.14758E+00   -0.64447E-02  5888   0.204E-01    0.147E+01
DAV: 395    -0.360755696409E+04    0.11218E+00   -0.10348E-01  6144   0.210E-01    0.116E+01
DAV: 396    -0.360778907653E+04   -0.23211E+00   -0.77592E-01  6144   0.128E+00    0.133E+01
DAV: 397    -0.360808348489E+04   -0.29441E+00   -0.35196E-01  6144   0.639E-01    0.113E+01
DAV: 398    -0.360816324411E+04   -0.79759E-01   -0.23933E-01  6016   0.536E-01    0.110E+01
DAV: 399    -0.360810843119E+04    0.54813E-01   -0.86621E-02  6144   0.245E-01    0.132E+01
DAV: 400    -0.360805621969E+04    0.52212E-01   -0.26013E-02  5632   0.155E-01    0.142E+01
DAV: 401    -0.360805389936E+04    0.23203E-02   -0.10212E+00  5632   0.570E-01    0.834E+00
DAV: 402    -0.360801439159E+04    0.39508E-01   -0.17563E-01  5760   0.340E-01    0.861E+00
DAV: 403    -0.360798935921E+04    0.25032E-01   -0.12964E-02  6144   0.881E-02    0.867E+00
DAV: 404    -0.360797820284E+04    0.11156E-01   -0.27537E-03  6528   0.426E-02    0.868E+00
DAV: 405    -0.360792270371E+04    0.55499E-01   -0.14532E-01  5888   0.360E-01    0.875E+00
DAV: 406    -0.360818997014E+04   -0.26727E+00   -0.51280E-01  5888   0.571E-01    0.684E+00
DAV: 407    -0.360796574696E+04    0.22422E+00   -0.52639E-01  5504   0.387E-01    0.672E+00
DAV: 408    -0.360720902485E+04    0.75672E+00   -0.12590E+00  5632   0.600E-01    0.684E+00
DAV: 409    -0.360690871504E+04    0.30031E+00   -0.12527E+00  5888   0.407E-01    0.178E+01
DAV: 410    -0.360685793406E+04    0.50781E-01   -0.13674E-01  5888   0.298E-01    0.202E+01
DAV: 411    -0.360803622484E+04   -0.11783E+01   -0.25494E+00  5504   0.792E-01    0.104E+01
DAV: 412    -0.360819222724E+04   -0.15600E+00   -0.45121E-01  6016   0.425E-01    0.116E+01
DAV: 413    -0.360822987536E+04   -0.37648E-01   -0.36019E-02  6272   0.169E-01    0.121E+01
DAV: 414    -0.360834904288E+04   -0.11917E+00   -0.10216E-01  6016   0.124E-01    0.125E+01
DAV: 415    -0.360841488502E+04   -0.65842E-01   -0.74472E-02  5888   0.126E-01    0.130E+01
DAV: 416    -0.360837008403E+04    0.44801E-01   -0.12414E-01  6016   0.246E-01    0.138E+01
DAV: 417    -0.360835037052E+04    0.19714E-01   -0.86006E-02  5888   0.160E-01    0.133E+01
DAV: 418    -0.360832121994E+04    0.29151E-01   -0.71715E-02  5888   0.209E-01    0.130E+01
DAV: 419    -0.360832753759E+04   -0.63176E-02   -0.38143E-03  5888   0.430E-02    0.130E+01
DAV: 420    -0.360833913099E+04   -0.11593E-01   -0.30559E-02  6144   0.933E-02    0.130E+01
DAV: 421    -0.360829537393E+04    0.43757E-01   -0.50780E-02  6400   0.143E-01    0.127E+01
DAV: 422    -0.360829813616E+04   -0.27622E-02   -0.99891E-03  6016   0.505E-02    0.126E+01
DAV: 423    -0.360831937205E+04   -0.21236E-01   -0.14720E-02  5760   0.674E-02    0.129E+01
DAV: 424    -0.360833310283E+04   -0.13731E-01   -0.12020E-01  6144   0.132E-01    0.148E+01
DAV: 425    -0.360829754290E+04    0.35560E-01   -0.12166E-01  5888   0.159E-01    0.157E+01
DAV: 426    -0.360837732650E+04   -0.79784E-01   -0.66022E-01  6144   0.786E-01    0.139E+01
DAV: 427    -0.360839529713E+04   -0.17971E-01   -0.21836E-01  5760   0.249E-01    0.122E+01
DAV: 428    -0.360835644908E+04    0.38848E-01   -0.11954E-01  5888   0.159E-01    0.120E+01
DAV: 429    -0.360843837000E+04   -0.81921E-01   -0.28687E-02  5632   0.151E-01    0.122E+01
DAV: 430    -0.360847720596E+04   -0.38836E-01   -0.69438E-03  6528   0.574E-02    0.123E+01
DAV: 431    -0.360822432676E+04    0.25288E+00   -0.19589E-01  6016   0.330E-01    0.118E+01
DAV: 432    -0.360812523523E+04    0.99092E-01   -0.93050E-02  6528   0.156E-01    0.104E+01
DAV: 433    -0.360823316084E+04   -0.10793E+00   -0.12314E-01  6016   0.211E-01    0.116E+01
DAV: 434    -0.360816392440E+04    0.69236E-01   -0.40316E-02  5760   0.153E-01    0.107E+01
DAV: 435    -0.360816693818E+04   -0.30138E-02   -0.25319E-02  5888   0.789E-02    0.105E+01
DAV: 436    -0.360804955060E+04    0.11739E+00   -0.13901E-01  6016   0.337E-01    0.811E+00
DAV: 437    -0.360827874627E+04   -0.22920E+00   -0.93929E-01  6144   0.417E-01    0.115E+01
DAV: 438    -0.360828866583E+04   -0.99196E-02   -0.30529E-02  6016   0.120E-01    0.117E+01
DAV: 439    -0.360821705510E+04    0.71611E-01   -0.26785E-02  5760   0.134E-01    0.115E+01
DAV: 440    -0.360824228535E+04   -0.25230E-01   -0.46154E-03  5632   0.600E-02    0.116E+01
DAV: 441    -0.360837529068E+04   -0.13301E+00   -0.43171E-01  5760   0.532E-01    0.107E+01
DAV: 442    -0.360857018269E+04   -0.19489E+00   -0.12432E-01  5632   0.374E-01    0.112E+01
DAV: 443    -0.360858673174E+04   -0.16549E-01   -0.37704E-02  5632   0.168E-01    0.114E+01
DAV: 444    -0.360856736497E+04    0.19367E-01   -0.11569E-02  5632   0.673E-02    0.114E+01
DAV: 445    -0.360858334313E+04   -0.15978E-01   -0.11795E-02  5632   0.787E-02    0.114E+01
DAV: 446    -0.360869577658E+04   -0.11243E+00   -0.19109E+00  6272   0.683E-01    0.131E+01
DAV: 447    -0.360859806272E+04    0.97714E-01   -0.40424E-01  5888   0.432E-01    0.971E+00
DAV: 448    -0.360844760484E+04    0.15046E+00   -0.42091E-01  5632   0.503E-01    0.121E+01
DAV: 449    -0.360848650554E+04   -0.38901E-01   -0.11156E-01  5888   0.357E-01    0.121E+01
DAV: 450    -0.360838332419E+04    0.10318E+00   -0.61249E-02  6016   0.237E-01    0.115E+01
DAV: 451    -0.360827983517E+04    0.10349E+00   -0.12469E-01  5760   0.412E-01    0.959E+00
DAV: 452    -0.360854262389E+04   -0.26279E+00   -0.63658E-01  5632   0.340E-01    0.120E+01
DAV: 453    -0.360852877918E+04    0.13845E-01   -0.51469E-02  5632   0.214E-01    0.113E+01
DAV: 454    -0.360852667816E+04    0.21010E-02   -0.13388E-02  6144   0.814E-02    0.113E+01
DAV: 455    -0.360847826333E+04    0.48415E-01   -0.32066E-02  5760   0.133E-01    0.112E+01
DAV: 456    -0.360817158844E+04    0.30667E+00   -0.97421E-01  5888   0.522E-01    0.101E+01
DAV: 457    -0.360818189667E+04   -0.10308E-01   -0.77546E-02  5760   0.252E-01    0.102E+01
DAV: 458    -0.360814237083E+04    0.39526E-01   -0.27162E-02  6400   0.134E-01    0.934E+00
DAV: 459    -0.360824059851E+04   -0.98228E-01   -0.12246E-01  5760   0.208E-01    0.112E+01
DAV: 460    -0.360822708321E+04    0.13515E-01   -0.16509E-02  5888   0.113E-01    0.114E+01
DAV: 461    -0.360829830650E+04   -0.71223E-01   -0.59057E-02  6016   0.215E-01    0.948E+00
DAV: 462    -0.360832728917E+04   -0.28983E-01   -0.37450E-02  6016   0.180E-01    0.975E+00
DAV: 463    -0.360831994928E+04    0.73399E-02   -0.39651E-03  5888   0.500E-02    0.980E+00
DAV: 464    -0.360831689997E+04    0.30493E-02   -0.33747E-03  6016   0.422E-02    0.922E+00
DAV: 465    -0.360825917858E+04    0.57721E-01   -0.17885E-02  5888   0.127E-01    0.964E+00
DAV: 466    -0.360822638341E+04    0.32795E-01   -0.23264E-01  6272   0.400E-01    0.118E+01
DAV: 467    -0.360826953587E+04   -0.43152E-01   -0.24151E-01  6272   0.305E-01    0.118E+01
DAV: 468    -0.360844613271E+04   -0.17660E+00   -0.49677E-02  6144   0.225E-01    0.136E+01
DAV: 469    -0.360842643804E+04    0.19695E-01   -0.23920E-02  5632   0.151E-01    0.135E+01
DAV: 470    -0.360844920427E+04   -0.22766E-01   -0.16501E-02  6400   0.219E-01    0.119E+01
DAV: 471    -0.360847796937E+04   -0.28765E-01   -0.10298E-01  6400   0.460E-01    0.135E+01
DAV: 472    -0.360850059045E+04   -0.22621E-01   -0.24027E-02  5888   0.144E-01    0.134E+01
DAV: 473    -0.360850662803E+04   -0.60376E-02   -0.69463E-03  6272   0.107E-01    0.133E+01
DAV: 474    -0.360855151452E+04   -0.44886E-01   -0.19294E-02  6400   0.236E-01    0.133E+01
DAV: 475    -0.360855141089E+04    0.10363E-03   -0.20843E-02  6144   0.160E-01    0.133E+01
DAV: 476    -0.360880827887E+04   -0.25687E+00   -0.12089E-01  6016   0.456E-01    0.138E+01
DAV: 477    -0.360882994996E+04   -0.21671E-01   -0.23497E-02  6016   0.157E-01    0.138E+01
DAV: 478    -0.360884805046E+04   -0.18101E-01   -0.33845E-02  6016   0.214E-01    0.141E+01
DAV: 479    -0.360886174570E+04   -0.13695E-01   -0.24781E-02  6400   0.177E-01    0.143E+01
DAV: 480    -0.360882313357E+04    0.38612E-01   -0.17142E-02  6656   0.148E-01    0.144E+01
DAV: 481    -0.360857583556E+04    0.24730E+00   -0.16329E-01  6272   0.451E-01    0.148E+01
DAV: 482    -0.360849340136E+04    0.82434E-01   -0.10627E-01  5888   0.212E-01    0.145E+01
DAV: 483    -0.360808816036E+04    0.40524E+00   -0.22716E-01  6400   0.318E-01    0.145E+01
DAV: 484    -0.360742851138E+04    0.65965E+00   -0.63166E-01  6272   0.354E-01    0.131E+01
DAV: 485    -0.360737623916E+04    0.52272E-01   -0.15949E-01  6016   0.234E-01    0.134E+01
DAV: 486    -0.360816376272E+04   -0.78752E+00   -0.12229E+00  6272   0.953E-01    0.152E+01
DAV: 487    -0.360812293803E+04    0.40825E-01   -0.11290E-01  5632   0.310E-01    0.154E+01
DAV: 488    -0.360799355496E+04    0.12938E+00   -0.46021E-02  6400   0.230E-01    0.140E+01
DAV: 489    -0.360791209635E+04    0.81459E-01   -0.32143E-01  6144   0.263E-01    0.124E+01
DAV: 490    -0.360797464752E+04   -0.62551E-01   -0.54613E-02  5760   0.204E-01    0.649E+00
DAV: 491    -0.360819087617E+04   -0.21623E+00   -0.61058E-01  5760   0.738E-01    0.712E+00
DAV: 492    -0.360826128808E+04   -0.70412E-01   -0.12682E-01  6016   0.237E-01    0.993E+00
DAV: 493    -0.360837616878E+04   -0.11488E+00   -0.67870E-01  5760   0.429E-01    0.114E+01
DAV: 494    -0.360828452864E+04    0.91640E-01   -0.95218E-02  5632   0.285E-01    0.100E+01
DAV: 495    -0.360829702234E+04   -0.12494E-01   -0.15731E-02  6272   0.767E-02    0.103E+01
DAV: 496    -0.360845920341E+04   -0.16218E+00   -0.22536E-01  5888   0.361E-01    0.107E+01
DAV: 497    -0.360837684395E+04    0.82359E-01   -0.17281E-01  6016   0.190E-01    0.107E+01
DAV: 498    -0.360836302890E+04    0.13815E-01   -0.19057E-02  5760   0.957E-02    0.104E+01
DAV: 499    -0.360840746901E+04   -0.44440E-01   -0.10652E-01  6016   0.180E-01    0.981E+00
DAV: 500    -0.360838881158E+04    0.18657E-01   -0.18527E-02  5760   0.975E-02
 -----------------------------------------------------------------------------
|                                                                             |
|           W    W    AA    RRRRR   N    N  II  N    N   GGGG   !!!           |
|           W    W   A  A   R    R  NN   N  II  NN   N  G    G  !!!           |
|           W    W  A    A  R    R  N N  N  II  N N  N  G       !!!           |
|           W WW W  AAAAAA  RRRRR   N  N N  II  N  N N  G  GGG   !            |
|           WW  WW  A    A  R   R   N   NN  II  N   NN  G    G                |
|           W    W  A    A  R    R  N    N  II  N    N   GGGG   !!!           |
|                                                                             |
|     The electronic self-consistency was not achieved in the given           |
|     number of steps (NELM). The forces and other quantities evaluated       |
|     might not be reliable so examine the results carefully. If you find     |
|     spurious results, we suggest increasing NELM, if you were close to      |
|     convergence or switching to a different ALGO or adjusting the           |
|     density mixing parameters otherwise.                                    |
|                                                                             |
 -----------------------------------------------------------------------------

 augmentation electrons   1804.87396359623     
 soft         electrons  0.000000000000000E+000
 total        electrons   1804.87396359623     
 augmentation electrons -3.489901692523269E-002
 soft         electrons  0.000000000000000E+000
 total        electrons -3.489901692523269E-002
 augmentation electrons   1897.59959528426     
 soft         electrons  0.000000000000000E+000
 total        electrons   1897.59959528426     
 augmentation electrons   1840.97656334226     
 soft         electrons  0.000000000000000E+000
 total        electrons   1840.97656334226     
 augmentation electrons   56.4326941926944     
 soft         electrons   1748.44118126767     
 total        electrons   1804.87387546037     
 augmentation electrons   16.2117167967793     
 soft         electrons   1748.44118126767     
 total        electrons   27.0764024466732     
 translations:           0           1           0
   1 F= -.36459391E+04 E0= -.36459346E+04  d E =-.364594E+04  mag=    27.1113
 curvature:   0.00 expect dE= 0.000E+00 dE for cont linesearch  0.000E+00
 trial: gam= 0.00000 g(F)=  0.238E+00 g(S)=  0.000E+00 ort = 0.000E+00 (trialstep = 0.100E+01)
 search vector abs. value=  0.238E+00
 bond charge predicted
       N       E                     dE             d eps       ncg     rms          rms(c)
DAV:   1    -0.379876935175E+04   -0.19036E+03   -0.59793E+02  7424   0.191E+01    0.110E+02
DAV:   2    -0.876028934878E+04   -0.49615E+04   -0.38110E+04  9344   0.874E+01    0.698E+02
DAV:   3    -0.372449535439E+04    0.50358E+04   -0.21607E+04  8448   0.747E+01    0.235E+02
DAV:   4    -0.396379162236E+04   -0.23930E+03   -0.41079E+03  7168   0.504E+01    0.153E+02
DAV:   5    -0.373437891936E+04    0.22941E+03   -0.51993E+02  6912   0.212E+01    0.117E+02
DAV:   6    -0.362562226437E+04    0.10876E+03   -0.23027E+02  7040   0.186E+01    0.815E+01
DAV:   7    -0.366101064043E+04   -0.35388E+02   -0.39126E+02  6656   0.112E+01    0.114E+02
DAV:   8    -0.360379143895E+04    0.57219E+02   -0.28313E+02  6144   0.103E+01    0.873E+01
DAV:   9    -0.360698319195E+04   -0.31918E+01   -0.27062E+02  6528   0.541E+00    0.845E+01
DAV:  10    -0.361217112933E+04   -0.51879E+01   -0.24764E+02  6400   0.521E+00    0.823E+01
DAV:  11    -0.360142109962E+04    0.10750E+02   -0.17410E+02  6144   0.494E+00    0.864E+01
DAV:  12    -0.359455615542E+04    0.68649E+01   -0.15612E+02  6144   0.338E+00    0.760E+01
DAV:  13    -0.359028430448E+04    0.42719E+01   -0.46453E+01  6016   0.193E+00    0.601E+01
DAV:  14    -0.359517920685E+04   -0.48949E+01   -0.49546E+01  6528   0.233E+00    0.664E+01
DAV:  15    -0.359437408893E+04    0.80512E+00   -0.11039E+01  5632   0.100E+00    0.522E+01
DAV:  16    -0.359637278241E+04   -0.19987E+01   -0.12977E+01  5760   0.882E-01    0.609E+01
DAV:  17    -0.359625019932E+04    0.12258E+00   -0.74929E-01  5760   0.674E-01    0.596E+01
DAV:  18    -0.359755286402E+04   -0.13027E+01   -0.15323E+00  6272   0.395E-01    0.593E+01
DAV:  19    -0.359734401525E+04    0.20885E+00   -0.20465E-01  5632   0.410E-01    0.587E+01
DAV:  20    -0.359740050840E+04   -0.56493E-01   -0.14371E+00  5760   0.367E-01    0.593E+01
DAV:  21    -0.359699938832E+04    0.40112E+00   -0.17834E-01  5760   0.340E-01    0.592E+01
DAV:  22    -0.359678868206E+04    0.21071E+00   -0.42472E-01  5632   0.222E-01    0.595E+01
DAV:  23    -0.359679650546E+04   -0.78234E-02   -0.48732E-02  5632   0.213E-01    0.590E+01
DAV:  24    -0.359690207879E+04   -0.10557E+00   -0.22275E+00  5888   0.353E-01    0.573E+01
DAV:  25    -0.359803506160E+04   -0.11330E+01   -0.27992E-01  5760   0.474E-01    0.566E+01
DAV:  26    -0.359857295546E+04   -0.53789E+00   -0.13456E-01  6144   0.302E-01    0.562E+01
DAV:  27    -0.359957950557E+04   -0.10066E+01   -0.70820E-01  6400   0.386E-01    0.569E+01
DAV:  28    -0.359959572103E+04   -0.16215E-01   -0.13672E+00  5632   0.405E-01    0.571E+01
DAV:  29    -0.359958522599E+04    0.10495E-01   -0.12970E-01  5632   0.376E-01    0.573E+01
DAV:  30    -0.359958243831E+04    0.27877E-02   -0.28464E-02  5760   0.148E-01    0.573E+01
DAV:  31    -0.359948909543E+04    0.93343E-01   -0.17653E-01  5888   0.242E-01    0.556E+01
DAV:  32    -0.359944924043E+04    0.39855E-01   -0.10480E-01  5760   0.245E-01    0.550E+01
DAV:  33    -0.359917374797E+04    0.27549E+00   -0.46521E-02  5760   0.233E-01    0.550E+01
DAV:  34    -0.359914720239E+04    0.26546E-01   -0.74425E-02  5632   0.213E-01    0.551E+01
DAV:  35    -0.359942548679E+04   -0.27828E+00   -0.13904E-01  6144   0.134E-01    0.551E+01
DAV:  36    -0.359986827603E+04   -0.44279E+00   -0.47274E-01  6016   0.301E-01    0.563E+01
DAV:  37    -0.360063058753E+04   -0.76231E+00   -0.61525E-01  5888   0.357E-01    0.573E+01
DAV:  38    -0.360057135621E+04    0.59231E-01   -0.13752E-01  5632   0.296E-01    0.575E+01
DAV:  39    -0.360056674806E+04    0.46081E-02   -0.22033E-02  5760   0.146E-01    0.575E+01
DAV:  40    -0.360024949407E+04    0.31725E+00   -0.69040E-01  6016   0.278E-01    0.591E+01
DAV:  41    -0.360085474991E+04   -0.60526E+00   -0.17036E-01  5760   0.355E-01    0.587E+01
DAV:  42    -0.360076413819E+04    0.90612E-01   -0.21411E-02  5888   0.149E-01    0.588E+01
DAV:  43    -0.360118302605E+04   -0.41889E+00   -0.17818E-02  5888   0.101E-01    0.586E+01
DAV:  44    -0.360156742667E+04   -0.38440E+00   -0.10304E-01  6400   0.112E-01    0.594E+01
DAV:  45    -0.360243156386E+04   -0.86414E+00   -0.21280E-01  5760   0.273E-01    0.593E+01
DAV:  46    -0.360313872014E+04   -0.70716E+00   -0.23820E-01  5888   0.235E-01    0.595E+01
DAV:  47    -0.362492379702E+04   -0.21785E+02   -0.91096E+01  6272   0.486E+00    0.808E+01
DAV:  48    -0.361911012156E+04    0.58137E+01   -0.37498E+01  6144   0.232E+00    0.690E+01
DAV:  49    -0.362172520500E+04   -0.26151E+01   -0.59634E+00  6144   0.114E+00    0.677E+01
DAV:  50    -0.362354567894E+04   -0.18205E+01   -0.16673E+00  5632   0.976E-01    0.682E+01
DAV:  51    -0.361753775762E+04    0.60079E+01   -0.97956E+00  5760   0.161E+00    0.646E+01
DAV:  52    -0.360706073680E+04    0.10477E+02   -0.55765E+01  6016   0.382E+00    0.690E+01
DAV:  53    -0.360075792113E+04    0.63028E+01   -0.15436E+01  5760   0.289E+00    0.634E+01
DAV:  54    -0.359501208220E+04    0.57458E+01   -0.36629E+00  5888   0.118E+00    0.622E+01
DAV:  55    -0.358258906167E+04    0.12423E+02   -0.52674E+00  6400   0.148E+00    0.579E+01
DAV:  56    -0.357804728175E+04    0.45418E+01   -0.12943E+00  6272   0.110E+00    0.559E+01
DAV:  57    -0.355120672250E+04    0.26841E+02   -0.49086E+01  5888   0.276E+00    0.522E+01
DAV:  58    -0.355967761328E+04   -0.84709E+01   -0.52884E+00  5888   0.208E+00    0.392E+01
DAV:  59    -0.356666859485E+04   -0.69910E+01   -0.13119E+00  5632   0.121E+00    0.368E+01
DAV:  60    -0.357839480517E+04   -0.11726E+02   -0.14866E+01  6656   0.123E+00    0.419E+01
DAV:  61    -0.357846674513E+04   -0.71940E-01   -0.80789E-01  5888   0.811E-01    0.399E+01
DAV:  62    -0.359594325417E+04   -0.17477E+02   -0.34871E+01  6016   0.350E+00    0.456E+01
DAV:  63    -0.359521998449E+04    0.72327E+00   -0.49745E+00  5888   0.138E+00    0.461E+01
DAV:  64    -0.359212099527E+04    0.30990E+01   -0.18309E+00  6144   0.808E-01    0.457E+01
DAV:  65    -0.359094376154E+04    0.11772E+01   -0.27445E-01  5760   0.425E-01    0.425E+01
DAV:  66    -0.358933480313E+04    0.16090E+01   -0.38207E+00  6144   0.998E-01    0.367E+01
DAV:  67    -0.359298809446E+04   -0.36533E+01   -0.17860E+01  5888   0.290E+00    0.449E+01
DAV:  68    -0.359006904550E+04    0.29190E+01   -0.51880E+00  6016   0.143E+00    0.432E+01
DAV:  69    -0.358837745307E+04    0.16916E+01   -0.63751E+00  5760   0.961E-01    0.436E+01
DAV:  70    -0.358340371179E+04    0.49737E+01   -0.40099E+00  5888   0.136E+00    0.449E+01
DAV:  71    -0.358167133273E+04    0.17324E+01   -0.39870E-01  6272   0.762E-01    0.425E+01
DAV:  72    -0.357614864899E+04    0.55227E+01   -0.22557E+01  6144   0.257E+00    0.343E+01
DAV:  73    -0.357851847009E+04   -0.23698E+01   -0.40797E+00  6016   0.112E+00    0.346E+01
DAV:  74    -0.357735261278E+04    0.11659E+01   -0.42936E-01  6144   0.748E-01    0.355E+01
DAV:  75    -0.357729483906E+04    0.57774E-01   -0.11286E-01  5888   0.336E-01    0.354E+01
DAV:  76    -0.357516255127E+04    0.21323E+01   -0.21317E+00  6144   0.739E-01    0.354E+01
DAV:  77    -0.359316448772E+04   -0.18002E+02   -0.33409E+01  5888   0.345E+00    0.253E+01
DAV:  78    -0.359694979471E+04   -0.37853E+01   -0.20450E+00  6272   0.146E+00    0.223E+01
DAV:  79    -0.359558647977E+04    0.13633E+01   -0.56155E+00  6016   0.109E+00    0.339E+01
DAV:  80    -0.359528710514E+04    0.29937E+00   -0.29819E+00  6144   0.690E-01    0.228E+01
DAV:  81    -0.359382479772E+04    0.14623E+01   -0.13387E+00  5760   0.985E-01    0.276E+01
DAV:  82    -0.360592768819E+04   -0.12103E+02   -0.19319E+01  6016   0.275E+00    0.388E+01
DAV:  83    -0.360550540179E+04    0.42229E+00   -0.59389E+00  5760   0.141E+00    0.370E+01
DAV:  84    -0.360446771511E+04    0.10377E+01   -0.10097E+00  6272   0.824E-01    0.332E+01
DAV:  85    -0.360308122809E+04    0.13865E+01   -0.24419E+00  6016   0.106E+00    0.328E+01
DAV:  86    -0.360170119736E+04    0.13800E+01   -0.71787E-01  5888   0.777E-01    0.313E+01
DAV:  87    -0.360493993580E+04   -0.32387E+01   -0.28052E+01  5760   0.214E+00    0.293E+01
DAV:  88    -0.360451284854E+04    0.42709E+00   -0.13046E+00  6144   0.124E+00    0.251E+01
DAV:  89    -0.360429677026E+04    0.21608E+00   -0.16191E+00  6144   0.103E+00    0.277E+01
DAV:  90    -0.360492096923E+04   -0.62420E+00   -0.41885E-01  6016   0.679E-01    0.265E+01
DAV:  91    -0.360586097487E+04   -0.94001E+00   -0.53688E-01  6528   0.698E-01    0.225E+01
DAV:  92    -0.360821208329E+04   -0.23511E+01   -0.44373E+00  5888   0.123E+00    0.261E+01
DAV:  93    -0.360713338261E+04    0.10787E+01   -0.35011E+00  6016   0.759E-01    0.217E+01
DAV:  94    -0.360711441995E+04    0.18963E-01   -0.13869E+00  6144   0.519E-01    0.181E+01
DAV:  95    -0.360761268372E+04   -0.49826E+00   -0.34402E-01  6144   0.490E-01    0.162E+01
DAV:  96    -0.360815991874E+04   -0.54724E+00   -0.11062E+00  6272   0.432E-01    0.209E+01
DAV:  97    -0.360773746819E+04    0.42245E+00   -0.33694E+00  5760   0.623E-01    0.205E+01
DAV:  98    -0.360805240434E+04   -0.31494E+00   -0.18964E-01  5888   0.502E-01    0.194E+01
DAV:  99    -0.360804229011E+04    0.10114E-01   -0.51516E-02  6272   0.281E-01    0.168E+01
DAV: 100    -0.360811260359E+04   -0.70313E-01   -0.85648E-01  6144   0.394E-01    0.135E+01
DAV: 101    -0.360817976372E+04   -0.67160E-01   -0.10690E-01  5632   0.373E-01    0.129E+01
DAV: 102    -0.360828924369E+04   -0.10948E+00   -0.21294E+00  6144   0.181E+00    0.140E+01
DAV: 103    -0.360833288726E+04   -0.43644E-01   -0.41877E-01  6272   0.592E-01    0.109E+01
DAV: 104    -0.360861049187E+04   -0.27760E+00   -0.34608E-01  5888   0.467E-01    0.115E+01
DAV: 105    -0.360845501328E+04    0.15548E+00   -0.11776E-01  5888   0.439E-01    0.101E+01
DAV: 106    -0.360851902922E+04   -0.64016E-01   -0.20751E-01  5888   0.552E-01    0.966E+00
DAV: 107    -0.360850872897E+04    0.10300E-01   -0.16728E+00  5760   0.930E-01    0.129E+01
DAV: 108    -0.360851174377E+04   -0.30148E-02   -0.19672E-01  5760   0.416E-01    0.132E+01
DAV: 109    -0.360848072710E+04    0.31017E-01   -0.28213E-02  6400   0.156E-01    0.127E+01
DAV: 110    -0.360847123983E+04    0.94873E-02   -0.14639E-02  5760   0.116E-01    0.122E+01
DAV: 111    -0.360844840595E+04    0.22834E-01   -0.18950E-01  5888   0.221E-01    0.116E+01
DAV: 112    -0.360856840862E+04   -0.12000E+00   -0.52789E-01  6016   0.465E-01    0.126E+01
DAV: 113    -0.360845129214E+04    0.11712E+00   -0.16990E-01  5760   0.356E-01    0.104E+01
DAV: 114    -0.360840439370E+04    0.46898E-01   -0.89518E-02  6272   0.242E-01    0.842E+00
DAV: 115    -0.360846542762E+04   -0.61034E-01   -0.77097E-02  5632   0.274E-01    0.813E+00
DAV: 116    -0.360848823441E+04   -0.22807E-01   -0.33138E-02  6016   0.181E-01    0.739E+00
DAV: 117    -0.360849736437E+04   -0.91300E-02   -0.77009E-02  6272   0.242E-01    0.631E+00
DAV: 118    -0.360848297454E+04    0.14390E-01   -0.50071E-02  6016   0.192E-01    0.701E+00
DAV: 119    -0.360852371029E+04   -0.40736E-01   -0.35674E-02  5760   0.131E-01    0.934E+00
DAV: 120    -0.360847475858E+04    0.48952E-01   -0.24038E-02  5888   0.195E-01    0.126E+01
DAV: 121    -0.360847720440E+04   -0.24458E-02   -0.97988E-03  5888   0.116E-01    0.125E+01
DAV: 122    -0.360849528172E+04   -0.18077E-01   -0.13208E-02  5888   0.155E-01    0.124E+01
DAV: 123    -0.360858608630E+04   -0.90805E-01   -0.18331E-02  6144   0.198E-01    0.119E+01
DAV: 124    -0.360876841182E+04   -0.18233E+00   -0.70251E-01  6400   0.147E-01    0.145E+01
DAV: 125    -0.360875864213E+04    0.97697E-02   -0.51172E-02  5632   0.232E-01    0.152E+01
DAV: 126    -0.360871094024E+04    0.47702E-01   -0.17715E-02  5760   0.164E-01    0.154E+01
DAV: 127    -0.360853075462E+04    0.18019E+00   -0.26491E-02  6144   0.199E-01    0.161E+01
DAV: 128    -0.360850553669E+04    0.25218E-01   -0.93681E-03  6400   0.118E-01    0.161E+01
DAV: 129    -0.360847560631E+04    0.29930E-01   -0.41533E-03  6656   0.747E-02    0.159E+01
DAV: 130    -0.360845307297E+04    0.22533E-01   -0.12613E-02  6400   0.104E-01    0.137E+01
DAV: 131    -0.360849648889E+04   -0.43416E-01   -0.26158E-02  5632   0.113E-01    0.884E+00
DAV: 132    -0.360848501555E+04    0.11473E-01   -0.39016E-01  6272   0.362E-01    0.623E+00
DAV: 133    -0.360856784875E+04   -0.82833E-01   -0.49177E-02  5888   0.234E-01    0.573E+00
DAV: 134    -0.360852975074E+04    0.38098E-01   -0.37373E-02  6400   0.268E-01    0.571E+00
DAV: 135    -0.360866821819E+04   -0.13847E+00   -0.33520E-02  6144   0.242E-01    0.122E+01
DAV: 136    -0.360861048063E+04    0.57738E-01   -0.40174E-02  5632   0.194E-01    0.122E+01
DAV: 137    -0.360834365040E+04    0.26683E+00   -0.42375E-01  6400   0.394E-01    0.597E+00
DAV: 138    -0.360850362156E+04   -0.15997E+00   -0.91496E-02  5760   0.326E-01    0.111E+01
DAV: 139    -0.360849094919E+04    0.12672E-01   -0.23601E-02  5760   0.140E-01    0.125E+01
DAV: 140    -0.360845969109E+04    0.31258E-01   -0.37370E-03  6016   0.547E-02    0.126E+01
DAV: 141    -0.360845264289E+04    0.70482E-02   -0.30247E-04  6144   0.192E-02    0.126E+01
DAV: 142    -0.360920142501E+04   -0.74878E+00   -0.23739E-01  6400   0.837E-01    0.126E+01
DAV: 143    -0.360920607241E+04   -0.46474E-02   -0.58819E-02  5888   0.177E-01    0.126E+01
DAV: 144    -0.360919761004E+04    0.84624E-02   -0.75123E-03  6272   0.109E-01    0.125E+01
DAV: 145    -0.360926720079E+04   -0.69591E-01   -0.12455E-02  6400   0.162E-01    0.122E+01
DAV: 146    -0.360940021683E+04   -0.13302E+00   -0.18207E-02  6528   0.182E-01    0.118E+01
DAV: 147    -0.360937053918E+04    0.29678E-01   -0.11520E-02  5888   0.128E-01    0.117E+01
DAV: 148    -0.360933618919E+04    0.34350E-01   -0.13565E-02  6400   0.175E-01    0.114E+01
DAV: 149    -0.360924262561E+04    0.93564E-01   -0.16814E-02  6528   0.220E-01    0.111E+01
DAV: 150    -0.360912478364E+04    0.11784E+00   -0.17150E-02  6528   0.239E-01    0.107E+01
DAV: 151    -0.360902851347E+04    0.96270E-01   -0.13005E-02  6400   0.171E-01    0.105E+01
DAV: 152    -0.360927291520E+04   -0.24440E+00   -0.93723E-02  5888   0.429E-01    0.977E+00
DAV: 153    -0.360914663387E+04    0.12628E+00   -0.20151E-02  6272   0.285E-01    0.935E+00
DAV: 154    -0.360899452959E+04    0.15210E+00   -0.19489E-02  6400   0.245E-01    0.917E+00
DAV: 155    -0.360887609224E+04    0.11844E+00   -0.19076E-01  6272   0.205E-01    0.109E+01
DAV: 156    -0.360884392453E+04    0.32168E-01   -0.31653E-02  5632   0.146E-01    0.116E+01
DAV: 157    -0.360882153130E+04    0.22393E-01   -0.31960E-02  5760   0.830E-02    0.104E+01
DAV: 158    -0.360880433423E+04    0.17197E-01   -0.49584E-02  5760   0.764E-02    0.967E+00
DAV: 159    -0.360877220480E+04    0.32129E-01   -0.99547E-03  5760   0.104E-01    0.985E+00
DAV: 160    -0.360878800510E+04   -0.15800E-01   -0.13370E-03  6016   0.324E-02    0.981E+00
DAV: 161    -0.360879784022E+04   -0.98351E-02   -0.16404E-04  5760   0.132E-02    0.978E+00
DAV: 162    -0.360884409756E+04   -0.46257E-01   -0.38135E-03  6144   0.898E-02    0.976E+00
DAV: 163    -0.360884043770E+04    0.36599E-02   -0.12553E-02  6016   0.909E-02    0.990E+00
DAV: 164    -0.360889004179E+04   -0.49604E-01   -0.24038E-01  6016   0.829E-02    0.121E+01
DAV: 165    -0.360890874511E+04   -0.18703E-01   -0.22503E-02  5760   0.134E-01    0.125E+01
DAV: 166    -0.360898212320E+04   -0.73378E-01   -0.49222E-03  5888   0.817E-02    0.121E+01
DAV: 167    -0.360910227146E+04   -0.12015E+00   -0.50626E-03  6528   0.997E-02    0.110E+01
DAV: 168    -0.360923156438E+04   -0.12929E+00   -0.56792E-03  5760   0.860E-02    0.104E+01
DAV: 169    -0.360938933947E+04   -0.15778E+00   -0.75878E-03  6016   0.106E-01    0.980E+00
DAV: 170    -0.360974442278E+04   -0.35508E+00   -0.50945E-02  5760   0.289E-01    0.754E+00
DAV: 171    -0.361005195513E+04   -0.30753E+00   -0.98960E-02  6400   0.397E-01    0.439E+00
DAV: 172    -0.361014582703E+04   -0.93872E-01   -0.46372E-02  6144   0.191E-01    0.299E+00
DAV: 173    -0.361015390161E+04   -0.80746E-02   -0.77581E-03  6016   0.665E-02    0.274E+00
DAV: 174    -0.361015996425E+04   -0.60626E-02   -0.64307E-04  6144   0.337E-02    0.276E+00
DAV: 175    -0.361014308932E+04    0.16875E-01   -0.10018E-03  6144   0.769E-02    0.313E+00
DAV: 176    -0.361014083674E+04    0.22526E-02   -0.91796E-04  6400   0.367E-02    0.297E+00
DAV: 177    -0.361011260136E+04    0.28235E-01   -0.97899E-03  6272   0.126E-01    0.310E+00
DAV: 178    -0.361016827659E+04   -0.55675E-01   -0.11026E-02  5760   0.135E-01    0.265E+00
DAV: 179    -0.361017384472E+04   -0.55681E-02   -0.42748E-03  5888   0.507E-02    0.239E+00
DAV: 180    -0.361019326584E+04   -0.19421E-01   -0.34117E-03  6016   0.589E-02    0.230E+00
DAV: 181    -0.361022421366E+04   -0.30948E-01   -0.70341E-03  5888   0.115E-01    0.166E+00
DAV: 182    -0.361023796087E+04   -0.13747E-01   -0.67124E-02  6144   0.230E-01    0.165E+00
DAV: 183    -0.361023756148E+04    0.39939E-03   -0.80956E-03  6144   0.652E-02    0.171E+00
DAV: 184    -0.361023597046E+04    0.15910E-02   -0.30614E-04  6016   0.164E-02    0.173E+00
DAV: 185    -0.361023558971E+04    0.38075E-03   -0.27296E-04  6272   0.238E-02    0.186E+00
DAV: 186    -0.361024087648E+04   -0.52868E-02   -0.16263E-03  6016   0.423E-02    0.248E+00
DAV: 187    -0.361023744724E+04    0.34292E-02   -0.12936E-03  5760   0.514E-02    0.204E+00
DAV: 188    -0.361023984814E+04   -0.24009E-02   -0.85679E-04  5760   0.335E-02    0.185E+00
DAV: 189    -0.361024030549E+04   -0.45736E-03   -0.86915E-04  5632   0.402E-02    0.145E+00
DAV: 190    -0.361024181846E+04   -0.15130E-02   -0.53827E-04  5888   0.327E-02    0.140E+00
DAV: 191    -0.361024129614E+04    0.52232E-03   -0.19660E-03  6656   0.422E-02    0.121E+00
DAV: 192    -0.361023996952E+04    0.13266E-02   -0.81178E-04  5632   0.302E-02    0.125E+00
DAV: 193    -0.361023878449E+04    0.11850E-02   -0.89355E-05  6144   0.948E-03    0.126E+00
DAV: 194    -0.361023834304E+04    0.44146E-03   -0.14936E-05  6016   0.521E-03    0.127E+00
DAV: 195    -0.361023802453E+04    0.31850E-03   -0.11299E-05  6144   0.383E-03    0.127E+00
DAV: 196    -0.361023764970E+04    0.37484E-03   -0.86372E-06  6400   0.302E-03    0.128E+00
DAV: 197    -0.361023729936E+04    0.35034E-03   -0.69354E-04  6656   0.321E-02    0.142E+00
DAV: 198    -0.361023793219E+04   -0.63282E-03   -0.31880E-04  5760   0.191E-02    0.146E+00
DAV: 199    -0.361023783417E+04    0.98016E-04   -0.10953E-04  5888   0.101E-02    0.147E+00
DAV: 200    -0.361023603054E+04    0.18036E-02   -0.12498E-04  6144   0.126E-02    0.145E+00
DAV: 201    -0.361023150683E+04    0.45237E-02   -0.40235E-04  6272   0.185E-02    0.145E+00
DAV: 202    -0.361022759229E+04    0.39145E-02   -0.70061E-04  6144   0.323E-02    0.163E+00
DAV: 203    -0.361021975543E+04    0.78369E-02   -0.54290E-04  6016   0.248E-02    0.166E+00
DAV: 204    -0.361022162670E+04   -0.18713E-02   -0.11668E-04  5888   0.880E-03    0.163E+00
DAV: 205    -0.361022372013E+04   -0.20934E-02   -0.59732E-05  6144   0.684E-03    0.161E+00
DAV: 206    -0.361022784545E+04   -0.41253E-02   -0.25763E-04  6016   0.122E-02    0.154E+00
DAV: 207    -0.361025616664E+04   -0.28321E-01   -0.44608E-02  6016   0.172E-01    0.920E-01
DAV: 208    -0.361025819199E+04   -0.20253E-02   -0.41523E-03  5888   0.507E-02    0.953E-01
DAV: 209    -0.361026049475E+04   -0.23028E-02   -0.50422E-04  6400   0.357E-02    0.976E-01
DAV: 210    -0.361026867063E+04   -0.81759E-02   -0.39628E-03  6016   0.109E-01    0.813E-01
DAV: 211    -0.361027432717E+04   -0.56565E-02   -0.45470E-03  6656   0.938E-02    0.758E-01
DAV: 212    -0.361027513325E+04   -0.80607E-03   -0.26177E-03  5760   0.482E-02    0.758E-01
DAV: 213    -0.361027549424E+04   -0.36100E-03   -0.71554E-04  6272   0.288E-02    0.765E-01
DAV: 214    -0.361027483417E+04    0.66008E-03   -0.30986E-04  5760   0.254E-02    0.729E-01
DAV: 215    -0.361027423854E+04    0.59563E-03   -0.16861E-04  6400   0.166E-02    0.705E-01
DAV: 216    -0.361027356249E+04    0.67605E-03   -0.11586E-04  6272   0.173E-02    0.667E-01
DAV: 217    -0.361027263775E+04    0.92473E-03   -0.23040E-04  6144   0.235E-02    0.615E-01
DAV: 218    -0.361027181573E+04    0.82202E-03   -0.21348E-04  6912   0.187E-02    0.572E-01
DAV: 219    -0.361027116693E+04    0.64880E-03   -0.12148E-04  6400   0.166E-02    0.532E-01
DAV: 220    -0.361026975490E+04    0.14120E-02   -0.44399E-04  6272   0.395E-02    0.437E-01
DAV: 221    -0.361026882876E+04    0.92614E-03   -0.55758E-04  6400   0.314E-02    0.369E-01
DAV: 222    -0.361026791416E+04    0.91459E-03   -0.48873E-04  6528   0.349E-02    0.303E-01
DAV: 223    -0.361026752540E+04    0.38876E-03   -0.34622E-04  6528   0.246E-02    0.254E-01
DAV: 224    -0.361026730918E+04    0.21622E-03   -0.16355E-04  6528   0.186E-02    0.214E-01
DAV: 225    -0.361026711116E+04    0.19801E-03   -0.12778E-04  6272   0.206E-02    0.160E-01
DAV: 226    -0.361026703473E+04    0.76434E-04   -0.15038E-04  6656   0.147E-02    0.118E-01
DAV: 227    -0.361026699491E+04    0.39817E-04   -0.24829E-04  6656   0.207E-02    0.338E-02
DAV: 228    -0.361026701976E+04   -0.24844E-04   -0.97538E-05  6144   0.829E-03    0.317E-02
DAV: 229    -0.361026702099E+04   -0.12373E-05   -0.11301E-05  5888   0.261E-03    0.292E-02
DAV: 230    -0.361026701960E+04    0.13921E-05   -0.40813E-07  5376   0.995E-04    0.269E-02
DAV: 231    -0.361026701857E+04    0.10353E-05   -0.42299E-06  6272   0.420E-03    0.211E-02
DAV: 232    -0.361026702145E+04   -0.28854E-05   -0.39799E-06  6144   0.244E-03    0.199E-02
DAV: 233    -0.361026702359E+04   -0.21380E-05   -0.23098E-06  5888   0.253E-03    0.277E-02
DAV: 234    -0.361026702337E+04    0.21889E-06   -0.19161E-06  5376   0.166E-03
 augmentation electrons   1804.89704211497     
 soft         electrons  0.000000000000000E+000
 total        electrons   1804.89704211497     
 augmentation electrons -2.534297242564397E-002
 soft         electrons  0.000000000000000E+000
 total        electrons -2.534297242564397E-002
 augmentation electrons   1866.65790062998     
 soft         electrons  0.000000000000000E+000
 total        electrons   1866.65790062998     
 augmentation electrons   1810.03486868798     
 soft         electrons  0.000000000000000E+000
 total        electrons   1810.03486868798     
 augmentation electrons   56.2187114793836     
 soft         electrons   1748.67826079278     
 total        electrons   1804.89697227216     
 augmentation electrons   11.7045332255763     
 soft         electrons   1748.67826079278     
 total        electrons   19.0070219819813     
 translations:           0           1           0
   2 F= -.36478971E+04 E0= -.36478927E+04  d E =-.195804E+01  mag=    19.0324
 trial-energy change:   -1.958038  1 .order   -0.160442   -0.238278   -0.082606
 step:   1.0075(harm=  1.5306)  dis= 0.02034  next Energy= -3647.897401 (dE=-0.196E+01)
 bond charge predicted
       N       E                     dE             d eps       ncg     rms          rms(c)
DAV:   1    -0.361026865210E+04   -0.16285E-02   -0.31065E-03  7040   0.685E-02    0.555E-01
DAV:   2    -0.361027496200E+04   -0.63099E-02   -0.83574E-02  6144   0.234E-01    0.111E+00
DAV:   3    -0.361026935891E+04    0.56031E-02   -0.96162E-03  5632   0.104E-01    0.462E-01
DAV:   4    -0.361026814230E+04    0.12166E-02   -0.23769E-03  5888   0.558E-02    0.305E-01
DAV:   5    -0.361026789019E+04    0.25211E-03   -0.60160E-04  5888   0.241E-02    0.212E-01
DAV:   6    -0.361026777760E+04    0.11259E-03   -0.14675E-04  5760   0.170E-02    0.156E-01
DAV:   7    -0.361026770146E+04    0.76143E-04   -0.84523E-05  6400   0.108E-02    0.119E-01
DAV:   8    -0.361026767255E+04    0.28910E-04   -0.37442E-05  6400   0.714E-03    0.910E-02
DAV:   9    -0.361026765788E+04    0.14673E-04   -0.22539E-05  6400   0.584E-03    0.644E-02
DAV:  10    -0.361026765162E+04    0.62590E-05   -0.19466E-05  6528   0.505E-03    0.394E-02
DAV:  11    -0.361026765208E+04   -0.46745E-06   -0.13072E-05  6272   0.470E-03    0.131E-02
DAV:  12    -0.361026765548E+04   -0.33964E-05   -0.57317E-06  5888   0.186E-03    0.818E-03
DAV:  13    -0.361026765614E+04   -0.65735E-06   -0.22680E-07  4608   0.479E-04
 augmentation electrons   1804.89733501763     
 soft         electrons  0.000000000000000E+000
 total        electrons   1804.89733501763     
 augmentation electrons -2.533573564515531E-002
 soft         electrons  0.000000000000000E+000
 total        electrons -2.533573564515531E-002
 augmentation electrons   1866.54931021721     
 soft         electrons  0.000000000000000E+000
 total        electrons   1866.54931021721     
 augmentation electrons   1809.92627827521     
 soft         electrons  0.000000000000000E+000
 total        electrons   1809.92627827521     
 augmentation electrons   56.2194112836357     
 soft         electrons   1748.67785404234     
 total        electrons   1804.89726532598     
 augmentation electrons   11.7042631309044     
 soft         electrons   1748.67785404234     
 total        electrons   19.0068578366293     
 translations:           0           1           0
   3 F= -.36478976E+04 E0= -.36478932E+04  d E =-.195858E+01  mag=    19.0322
 curvature:  -0.02 expect dE=-0.428E-02 dE for cont linesearch -0.608E-03
 ZBRENT: increasing intervall
 opt :   1.0225  next Energy= -3647.898860 (dE=-0.196E+01)
 bond charge predicted
       N       E                     dE             d eps       ncg     rms          rms(c)
DAV:   1    -0.361026891943E+04   -0.12639E-02   -0.52057E-03  6400   0.774E-02    0.132E-01
DAV:   2    -0.361026935839E+04   -0.43897E-03   -0.53397E-03  6272   0.616E-02    0.295E-01
DAV:   3    -0.361026892012E+04    0.43827E-03   -0.76862E-04  5632   0.333E-02    0.994E-02
DAV:   4    -0.361026889502E+04    0.25101E-04   -0.16387E-04  5760   0.123E-02    0.498E-02
DAV:   5    -0.361026890074E+04   -0.57216E-05   -0.25838E-05  5760   0.484E-03    0.282E-02
DAV:   6    -0.361026890362E+04   -0.28854E-05   -0.37924E-06  5120   0.280E-03    0.198E-02
DAV:   7    -0.361026890386E+04   -0.23286E-06   -0.21322E-06  5760   0.171E-03
 augmentation electrons   1804.89782344276     
 soft         electrons  0.000000000000000E+000
 total        electrons   1804.89782344276     
 augmentation electrons -2.537422859447148E-002
 soft         electrons  0.000000000000000E+000
 total        electrons -2.537422859447148E-002
 augmentation electrons   1866.33427642052     
 soft         electrons  0.000000000000000E+000
 total        electrons   1866.33427642052     
 augmentation electrons   1809.71124447852     
 soft         electrons  0.000000000000000E+000
 total        electrons   1809.71124447852     
 augmentation electrons   56.2198093208750     
 soft         electrons   1748.67794473378     
 total        electrons   1804.89775405465     
 augmentation electrons   11.7041433186505     
 soft         electrons   1748.67794473378     
 total        electrons   19.0069085851085     
 translations:           0           1           0
   4 F= -.36478988E+04 E0= -.36478944E+04  d E =-.195979E+01  mag=    19.0323
 curvature:  -0.04 expect dE=-0.875E-02 dE for cont linesearch -0.116E-02
 ZBRENT: increasing intervall
 opt :   1.0525  next Energy= -3647.901182 (dE=-0.196E+01)
 bond charge predicted
       N       E                     dE             d eps       ncg     rms          rms(c)
DAV:   1    -0.361027130553E+04   -0.24019E-02   -0.20406E-02  6272   0.154E-01    0.249E-01
DAV:   2    -0.361027285554E+04   -0.15500E-02   -0.13915E-02  6144   0.123E-01    0.526E-01
DAV:   3    -0.361027147520E+04    0.13803E-02   -0.24360E-03  5632   0.611E-02    0.197E-01
DAV:   4    -0.361027130490E+04    0.17030E-03   -0.53033E-04  5632   0.259E-02    0.107E-01
DAV:   5    -0.361027131240E+04   -0.74958E-05   -0.11227E-04  5888   0.108E-02    0.676E-02
DAV:   6    -0.361027131780E+04   -0.54069E-05   -0.22125E-05  5760   0.619E-03    0.459E-02
DAV:   7    -0.361027131690E+04    0.90152E-06   -0.10082E-05  6400   0.401E-03    0.286E-02
DAV:   8    -0.361027131758E+04   -0.68174E-06   -0.62595E-06  5248   0.323E-03
 augmentation electrons   1804.89889830595     
 soft         electrons  0.000000000000000E+000
 total        electrons   1804.89889830595     
 augmentation electrons -2.538959311830549E-002
 soft         electrons  0.000000000000000E+000
 total        electrons -2.538959311830549E-002
 augmentation electrons   1865.91237179461     
 soft         electrons  0.000000000000000E+000
 total        electrons   1865.91237179461     
 augmentation electrons   1809.28933985261     
 soft         electrons  0.000000000000000E+000
 total        electrons   1809.28933985261     
 augmentation electrons   56.2209253501328     
 soft         electrons   1748.67790417510     
 total        electrons   1804.89882952524     
 augmentation electrons   11.7040808020278     
 soft         electrons   1748.67790417510     
 total        electrons   19.0072865031862     
 translations:           0           1           0
   5 F= -.36479012E+04 E0= -.36478967E+04  d E =-.196211E+01  mag=    19.0327
 curvature:  -0.09 expect dE=-0.182E-01 dE for cont linesearch -0.213E-02
 ZBRENT: increasing intervall
 opt :   1.1124  next Energy= -3647.905529 (dE=-0.197E+01)
 bond charge predicted
       N       E                     dE             d eps       ncg     rms          rms(c)
DAV:   1    -0.361027492694E+04   -0.36100E-02   -0.79396E-02  6272   0.298E-01    0.273E-01
DAV:   2    -0.361027692728E+04   -0.20003E-02   -0.19515E-02  6016   0.119E-01    0.486E-01
DAV:   3    -0.361027583794E+04    0.10893E-02   -0.29201E-03  5632   0.631E-02    0.145E-01
DAV:   4    -0.361027582654E+04    0.11396E-04   -0.84396E-04  6016   0.272E-02    0.843E-02
DAV:   5    -0.361027583880E+04   -0.12258E-04   -0.12410E-04  5760   0.129E-02    0.462E-02
[...]
 translations:           0           1           0
 137 F= -.36484068E+04 E0= -.36483978E+04  d E =-.961738E-03  mag=    19.0906
 curvature:  -1.14 expect dE=-0.270E-02 dE for cont linesearch -0.366E-04
 ZBRENT: increasing intervall
 opt :   0.6426  next Energy= -3648.406592 (dE=-0.775E-03)
 bond charge predicted
       N       E                     dE             d eps       ncg     rms          rms(c)
DAV:   1    -0.361082294983E+04    0.54907E-03   -0.15017E-01  5376   0.454E-01    0.252E-01
DAV:   2    -0.361082598119E+04   -0.30314E-02   -0.16269E-02  6400   0.126E-01    0.137E+00
DAV:   3    -0.361082077357E+04    0.52076E-02   -0.11143E-02  5248   0.845E-02    0.161E-01
DAV:   4    -0.361082317661E+04   -0.24030E-02   -0.16805E-03  5120   0.468E-02    0.149E-01
DAV:   5    -0.361082322110E+04   -0.44494E-04   -0.27642E-04  5376   0.211E-02    0.112E-01
DAV:   6    -0.361082319002E+04    0.31081E-04   -0.10078E-04  5632   0.127E-02    0.531E-02
DAV:   7    -0.361082319444E+04   -0.44183E-05   -0.53226E-05  5632   0.103E-02    0.467E-02
DAV:   8    -0.361082320254E+04   -0.80985E-05   -0.40101E-05  5760   0.899E-03    0.719E-02
DAV:   9    -0.361082319020E+04    0.12338E-04   -0.19963E-05  5632   0.537E-03    0.491E-02
DAV:  10    -0.361082318648E+04    0.37153E-05   -0.76834E-06  5248   0.329E-03    0.317E-02
DAV:  11    -0.361082318664E+04   -0.15314E-06   -0.32812E-06  4992   0.235E-03
 augmentation electrons   1804.94770105259     
 soft         electrons  0.000000000000000E+000
 total        electrons   1804.94770105259     
 augmentation electrons -2.462200082020938E-002
 soft         electrons  0.000000000000000E+000
 total        electrons -2.462200082020938E-002
 augmentation electrons   1964.53667894398     
 soft         electrons  0.000000000000000E+000
 total        electrons   1964.53667894398     
 augmentation electrons   1907.91364700198     
 soft         electrons  0.000000000000000E+000
 total        electrons   1907.91364700198     
 augmentation electrons   56.2795196057271     
 soft         electrons   1748.66812754793     
 total        electrons   1804.94764715366     
 augmentation electrons   11.6230040794270     
 soft         electrons   1748.66812754793     
 total        electrons   19.0649402580551     
 translations:           0           1           0
 138 F= -.36484066E+04 E0= -.36483977E+04  d E =-.817565E-03  mag=    19.0896
 curvature:   5.81 expect dE= 0.459E-01 dE for cont linesearch  0.113E-02
 ZBRENT: bracketing found
 ZBRENT: interpolating
 opt :   0.4285  next Energy= -3648.406820 (dE=-0.100E-02)
 bond charge predicted
       N       E                     dE             d eps       ncg     rms          rms(c)
DAV:   1    -0.361082329663E+04   -0.11014E-03   -0.75539E-02  5376   0.322E-01    0.149E-01
DAV:   2    -0.361082445365E+04   -0.11570E-02   -0.65416E-03  6144   0.891E-02    0.642E-01
DAV:   3    -0.361082306570E+04    0.13880E-02   -0.26084E-03  5504   0.567E-02    0.188E-01
DAV:   4    -0.361082348496E+04   -0.41926E-03   -0.61156E-04  5504   0.314E-02    0.641E-02
DAV:   5    -0.361082351939E+04   -0.34433E-04   -0.12185E-04  5632   0.130E-02    0.550E-02
DAV:   6    -0.361082351191E+04    0.74759E-05   -0.40920E-05  5888   0.784E-03    0.361E-02
DAV:   7    -0.361082351331E+04   -0.13956E-05   -0.25749E-05  5632   0.638E-03    0.381E-02
DAV:   8    -0.361082350926E+04    0.40531E-05   -0.19919E-05  5760   0.563E-03    0.239E-02
DAV:   9    -0.361082350869E+04    0.56822E-06   -0.49055E-06  4992   0.348E-03
 augmentation electrons   1804.94410165940     
 soft         electrons  0.000000000000000E+000
 total        electrons   1804.94410165940     
 augmentation electrons -2.460029077323083E-002
 soft         electrons  0.000000000000000E+000
 total        electrons -2.460029077323083E-002
 augmentation electrons   1960.31776394063     
 soft         electrons  0.000000000000000E+000
 total        electrons   1960.31776394063     
 augmentation electrons   1903.69473199863     
 soft         electrons  0.000000000000000E+000
 total        electrons   1903.69473199863     
 augmentation electrons   56.2761120588664     
 soft         electrons   1748.66793573320     
 total        electrons   1804.94404779207     
 augmentation electrons   11.6227894381348     
 soft         electrons   1748.66793573320     
 total        electrons   19.0648297350513     
 translations:           0           1           0
 139 F= -.36484068E+04 E0= -.36483979E+04  d E =-.100297E-02  mag=    19.0894
 curvature:  -0.21 expect dE=-0.685E-03 dE for cont linesearch -0.102E-08
 trial: gam= 0.63881 g(F)=  0.323E-02 g(S)=  0.000E+00 ort =-0.117E-04 (trialstep = 0.238E+00)
 search vector abs. value=  0.148E-01
 bond charge predicted
       N       E                     dE             d eps       ncg     rms          rms(c)
DAV:   1    -0.361082406708E+04   -0.55782E-03   -0.50078E-02  5632   0.257E-01    0.189E-01
DAV:   2    -0.361082661179E+04   -0.25447E-02   -0.87994E-03  6016   0.976E-02    0.117E+00
DAV:   3    -0.361082217729E+04    0.44345E-02   -0.59984E-03  5248   0.756E-02    0.977E-02
DAV:   4    -0.361082395661E+04   -0.17793E-02   -0.89100E-04  5120   0.336E-02    0.541E-02
DAV:   5    -0.361082406429E+04   -0.10768E-03   -0.10188E-04  5376   0.132E-02    0.422E-02
DAV:   6    -0.361082406501E+04   -0.71670E-06   -0.30256E-05  5632   0.708E-03    0.307E-02
DAV:   7    -0.361082406782E+04   -0.28169E-05   -0.16811E-05  5760   0.632E-03    0.426E-02
DAV:   8    -0.361082406437E+04    0.34552E-05   -0.12611E-05  5888   0.517E-03    0.367E-02
DAV:   9    -0.361082406067E+04    0.36955E-05   -0.55473E-06  4992   0.306E-03    0.161E-02
DAV:  10    -0.361082406154E+04   -0.86382E-06   -0.20978E-06  4608   0.170E-03
 augmentation electrons   1804.94608797706     
 soft         electrons  0.000000000000000E+000
 total        electrons   1804.94608797706     
 augmentation electrons -2.464145694722375E-002
 soft         electrons  0.000000000000000E+000
 total        electrons -2.464145694722375E-002
 augmentation electrons   1962.99269736617     
 soft         electrons  0.000000000000000E+000
 total        electrons   1962.99269736617     
 augmentation electrons   1906.36966542417     
 soft         electrons  0.000000000000000E+000
 total        electrons   1906.36966542417     
 augmentation electrons   56.2780815887987     
 soft         electrons   1748.66795246827     
 total        electrons   1804.94603405707     
 augmentation electrons   11.6231663192728     
 soft         electrons   1748.66795246827     
 total        electrons   19.0652769640111     
 translations:           0           1           0
 140 F= -.36484075E+04 E0= -.36483985E+04  d E =-.638566E-03  mag=    19.0899
 trial-energy change:   -0.000639  1 .order   -0.000581   -0.000768   -0.000395
 step:   0.3465(harm=  0.4908)  dis= 0.00093  next Energy= -3648.407553 (dE=-0.733E-03)
 bond charge predicted
       N       E                     dE             d eps       ncg     rms          rms(c)
DAV:   1    -0.361082419977E+04   -0.13910E-03   -0.10350E-02  5888   0.117E-01    0.100E-01
DAV:   2    -0.361082477433E+04   -0.57455E-03   -0.32209E-03  6272   0.553E-02    0.482E-01
DAV:   3    -0.361082392437E+04    0.84995E-03   -0.10429E-03  5504   0.393E-02    0.107E-01
DAV:   4    -0.361082416616E+04   -0.24179E-03   -0.21130E-04  5120   0.166E-02    0.352E-02
DAV:   5    -0.361082419110E+04   -0.24947E-04   -0.35706E-05  6016   0.701E-03    0.334E-02
DAV:   6    -0.361082419131E+04   -0.20253E-06   -0.11249E-05  5376   0.448E-03    0.163E-02
DAV:   7    -0.361082419241E+04   -0.11004E-05   -0.42163E-06  4992   0.281E-03    0.140E-02
DAV:   8    -0.361082419200E+04    0.40603E-06   -0.31294E-06  5120   0.232E-03
 augmentation electrons   1804.94698540426     
 soft         electrons  0.000000000000000E+000
 total        electrons   1804.94698540426     
 augmentation electrons -2.468675707891421E-002
 soft         electrons  0.000000000000000E+000
 total        electrons -2.468675707891421E-002
 augmentation electrons   1964.20914813179     
 soft         electrons  0.000000000000000E+000
 total        electrons   1964.20914813179     
 augmentation electrons   1907.58611618979     
 soft         electrons  0.000000000000000E+000
 total        electrons   1907.58611618979     
 augmentation electrons   56.2789106319860     
 soft         electrons   1748.66802083012     
 total        electrons   1804.94693146211     
 augmentation electrons   11.6230792360365     
 soft         electrons   1748.66802083012     
 total        electrons   19.0650224644405     
 translations:           0           1           0
 141 F= -.36484076E+04 E0= -.36483987E+04  d E =-.817953E-03  mag=    19.0897
 curvature:  -0.76 expect dE=-0.135E-02 dE for cont linesearch -0.482E-04
 ZBRENT: increasing intervall
 opt :   0.5625  next Energy= -3648.407700 (dE=-0.879E-03)
 bond charge predicted
       N       E                     dE             d eps       ncg     rms          rms(c)
DAV:   1    -0.361082416069E+04    0.31715E-04   -0.41084E-02  5376   0.232E-01    0.133E-01
DAV:   2    -0.361082482814E+04   -0.66745E-03   -0.64073E-03  6528   0.787E-02    0.414E-01
DAV:   3    -0.361082414401E+04    0.68413E-03   -0.17833E-03  5760   0.460E-02    0.159E-01
DAV:   4    -0.361082419093E+04   -0.46922E-04   -0.27734E-04  5632   0.197E-02    0.615E-02
DAV:   5    -0.361082422008E+04   -0.29143E-04   -0.67163E-05  5632   0.102E-02    0.397E-02
DAV:   6    -0.361082422207E+04   -0.19893E-05   -0.27229E-05  5888   0.633E-03    0.271E-02
DAV:   7    -0.361082422109E+04    0.97629E-06   -0.62130E-06  5632   0.340E-03
 augmentation electrons   1804.94887504046     
 soft         electrons  0.000000000000000E+000
 total        electrons   1804.94887504046     
 augmentation electrons -2.461141543897235E-002
 soft         electrons  0.000000000000000E+000
 total        electrons -2.461141543897235E-002
 augmentation electrons   1966.64798895696     
 soft         electrons  0.000000000000000E+000
 total        electrons   1966.64798895696     
 augmentation electrons   1910.02495701496     
 soft         electrons  0.000000000000000E+000
 total        electrons   1910.02495701496     
 augmentation electrons   56.2807973788590     
 soft         electrons   1748.66802367819     
 total        electrons   1804.94882105705     
 augmentation electrons   11.6225018471588     
 soft         electrons   1748.66802367819     
 total        electrons   19.0635282949035     
 translations:           0           1           0
 142 F= -.36484077E+04 E0= -.36483989E+04  d E =-.927087E-03  mag=    19.0881
 curvature:  -0.97 expect dE=-0.365E-02 dE for cont linesearch -0.141E-04
 trial: gam= 1.27235 g(F)=  0.378E-02 g(S)=  0.000E+00 ort =-0.465E-03 (trialstep = 0.169E+00)
 search vector abs. value=  0.265E-01
 bond charge predicted
       N       E                     dE             d eps       ncg     rms          rms(c)
DAV:   1    -0.361082468252E+04   -0.46046E-03   -0.42999E-02  5248   0.242E-01    0.233E-01
DAV:   2    -0.361082687516E+04   -0.21926E-02   -0.12028E-02  6016   0.120E-01    0.761E-01
DAV:   3    -0.361082440100E+04    0.24742E-02   -0.55807E-03  5760   0.772E-02    0.278E-01
DAV:   4    -0.361082452096E+04   -0.11996E-03   -0.94835E-04  5632   0.304E-02    0.139E-01
DAV:   5    -0.361082458499E+04   -0.64033E-04   -0.21340E-04  5760   0.175E-02    0.897E-02
DAV:   6    -0.361082459875E+04   -0.13754E-04   -0.56603E-05  5760   0.876E-03    0.398E-02
DAV:   7    -0.361082461578E+04   -0.17034E-04   -0.20628E-05  5632   0.586E-03    0.220E-02
DAV:   8    -0.361082461803E+04   -0.22510E-05   -0.86251E-06  5504   0.397E-03    0.176E-02
DAV:   9    -0.361082461837E+04   -0.33992E-06   -0.58314E-06  4992   0.345E-03
 augmentation electrons   1804.94967334445     
 soft         electrons  0.000000000000000E+000
 total        electrons   1804.94967334445     
 augmentation electrons -2.461363995650767E-002
 soft         electrons  0.000000000000000E+000
 total        electrons -2.461363995650767E-002
 augmentation electrons   1968.53309511710     
 soft         electrons  0.000000000000000E+000
 total        electrons   1968.53309511710     
 augmentation electrons   1911.91006317510     
 soft         electrons  0.000000000000000E+000
 total        electrons   1911.91006317510     
 augmentation electrons   56.2815034935091     
 soft         electrons   1748.66811587680     
 total        electrons   1804.94961937031     
 augmentation electrons   11.6230842487522     
 soft         electrons   1748.66811587680     
 total        electrons   19.0642527294572     
 translations:           0           1           0
 143 F= -.36484083E+04 E0= -.36483994E+04  d E =-.513912E-03  mag=    19.0889
 trial-energy change:   -0.000514  1 .order   -0.000445   -0.000539   -0.000352
 step:   0.2451(harm=  0.4881)  dis= 0.00078  next Energy= -3648.408347 (dE=-0.599E-03)
 bond charge predicted
       N       E                     dE             d eps       ncg     rms          rms(c)
DAV:   1    -0.361082526742E+04   -0.64939E-03   -0.99054E-03  5888   0.116E-01    0.427E-01
DAV:   2    -0.361083452301E+04   -0.92556E-02   -0.37596E-02  6144   0.202E-01    0.140E+00
DAV:   3    -0.361082454521E+04    0.99778E-02   -0.12095E-02  5760   0.117E-01    0.582E-01
DAV:   4    -0.361082443426E+04    0.11095E-03   -0.20314E-03  5632   0.454E-02    0.382E-01
DAV:   5    -0.361082449296E+04   -0.58700E-04   -0.38143E-04  5632   0.251E-02    0.233E-01
DAV:   6    -0.361082460360E+04   -0.11064E-03   -0.12049E-04  6144   0.133E-02    0.141E-01
DAV:   7    -0.361082467947E+04   -0.75873E-04   -0.52024E-05  5632   0.944E-03    0.106E-01
DAV:   8    -0.361082469205E+04   -0.12581E-04   -0.19192E-05  5888   0.665E-03    0.530E-02
DAV:   9    -0.361082471549E+04   -0.23435E-04   -0.13247E-05  5760   0.494E-03    0.148E-02
DAV:  10    -0.361082472932E+04   -0.13831E-04   -0.86422E-06  5632   0.345E-03    0.732E-03
DAV:  11    -0.361082473099E+04   -0.16694E-05   -0.95941E-07  4864   0.122E-03    0.102E-02
DAV:  12    -0.361082473080E+04    0.18414E-06   -0.39417E-07  4736   0.788E-04
 augmentation electrons   1804.95002449227     
 soft         electrons  0.000000000000000E+000
 total        electrons   1804.95002449227     
 augmentation electrons -2.462915969334117E-002
 soft         electrons  0.000000000000000E+000
 total        electrons -2.462915969334117E-002
 augmentation electrons   1969.37272904166     
 soft         electrons  0.000000000000000E+000
 total        electrons   1969.37272904166     
 augmentation electrons   1912.74969709966     
 soft         electrons  0.000000000000000E+000
 total        electrons   1912.74969709966     
 augmentation electrons   56.2820763149615     
 soft         electrons   1748.66789420631     
 total        electrons   1804.94997052127     
 augmentation electrons   11.6229787669922     
 soft         electrons   1748.66789420631     
 total        electrons   19.0643488701782     
 translations:           0           1           0
 144 F= -.36484084E+04 E0= -.36483995E+04  d E =-.624239E-03  mag=    19.0890
 curvature:  -0.85 expect dE=-0.214E-02 dE for cont linesearch -0.707E-04
 ZBRENT: increasing intervall
 opt :   0.3973  next Energy= -3648.408506 (dE=-0.758E-03)
 bond charge predicted
       N       E                     dE             d eps       ncg     rms          rms(c)
DAV:   1    -0.361082479674E+04   -0.65747E-04   -0.34911E-02  5760   0.216E-01    0.164E-01
DAV:   2    -0.361082645574E+04   -0.16590E-02   -0.46300E-03  6016   0.786E-02    0.692E-01
DAV:   3    -0.361082437910E+04    0.20766E-02   -0.22163E-03  5504   0.531E-02    0.159E-01
DAV:   4    -0.361082474333E+04   -0.36423E-03   -0.40316E-04  5376   0.219E-02    0.763E-02
DAV:   5    -0.361082481774E+04   -0.74405E-04   -0.70926E-05  5632   0.108E-02    0.276E-02
DAV:   6    -0.361082484357E+04   -0.25834E-04   -0.29195E-05  5632   0.731E-03    0.295E-02
DAV:   7    -0.361082484254E+04    0.10316E-05   -0.95755E-06  5760   0.448E-03    0.221E-02
DAV:   8    -0.361082484283E+04   -0.29513E-06   -0.98059E-06  5376   0.381E-03
 augmentation electrons   1804.95079662810     
 soft         electrons  0.000000000000000E+000
 total        electrons   1804.95079662810     
 augmentation electrons -2.452682478898212E-002
 soft         electrons  0.000000000000000E+000
 total        electrons -2.452682478898212E-002
 augmentation electrons   1971.03405995888     
 soft         electrons  0.000000000000000E+000
 total        electrons   1971.03405995888     
 augmentation electrons   1914.41102801688     
 soft         electrons  0.000000000000000E+000
 total        electrons   1914.41102801688     
 augmentation electrons   56.2826552540980     
 soft         electrons   1748.66808741750     
 total        electrons   1804.95074267160     
 augmentation electrons   11.6237538602536     
 soft         electrons   1748.66808741750     
 total        electrons   19.0654955604635     
 translations:           0           1           0
 145 F= -.36484086E+04 E0= -.36483998E+04  d E =-.849991E-03  mag=    19.0900
 curvature:  -1.62 expect dE=-0.490E-02 dE for cont linesearch -0.141E-04
 trial: gam= 0.36940 g(F)=  0.303E-02 g(S)=  0.000E+00 ort = 0.481E-03 (trialstep = 0.215E+00)
 search vector abs. value=  0.700E-02
 bond charge predicted
       N       E                     dE             d eps       ncg     rms          rms(c)
DAV:   1    -0.361082637402E+04   -0.15315E-02   -0.23645E-02  6144   0.186E-01    0.788E-01
DAV:   2    -0.361084622062E+04   -0.19847E-01   -0.18429E-01  6144   0.310E-01    0.190E+00
DAV:   3    -0.361082920199E+04    0.17019E-01   -0.27933E-02  5632   0.161E-01    0.800E-01
DAV:   4    -0.361082757944E+04    0.16225E-02   -0.67218E-03  5760   0.917E-02    0.706E-01
DAV:   5    -0.361082566675E+04    0.19127E-02   -0.18901E-03  6016   0.471E-02    0.436E-01
DAV:   6    -0.361082538696E+04    0.27980E-03   -0.50643E-04  5760   0.284E-02    0.325E-01
DAV:   7    -0.361082529555E+04    0.91409E-04   -0.21428E-04  6272   0.155E-02    0.271E-01
DAV:   8    -0.361082518294E+04    0.11261E-03   -0.12498E-04  6400   0.135E-02    0.195E-01
DAV:   9    -0.361082517498E+04    0.79595E-05   -0.12251E-04  6016   0.124E-02    0.105E-01
DAV:  10    -0.361082523968E+04   -0.64701E-04   -0.78710E-05  5888   0.103E-02    0.157E-02
DAV:  11    -0.361082529044E+04   -0.50761E-04   -0.35543E-05  5632   0.663E-03    0.173E-02
DAV:  12    -0.361082529158E+04   -0.11362E-05   -0.37844E-06  4992   0.254E-03    0.115E-02
DAV:  13    -0.361082529101E+04    0.56674E-06   -0.13837E-06  5760   0.154E-03
 augmentation electrons   1804.94974588517     
 soft         electrons  0.000000000000000E+000
 total        electrons   1804.94974588517     
 augmentation electrons -2.451927179772707E-002
 soft         electrons  0.000000000000000E+000
 total        electrons -2.451927179772707E-002
 augmentation electrons   1971.29108790426     
 soft         electrons  0.000000000000000E+000
 total        electrons   1971.29108790426     
 augmentation electrons   1914.66805596226     
 soft         electrons  0.000000000000000E+000
 total        electrons   1914.66805596226     
 augmentation electrons   56.2820114204605     
 soft         electrons   1748.66768058590     
 total        electrons   1804.94969200636     
 augmentation electrons   11.6232699434355     
 soft         electrons   1748.66768058590     
 total        electrons   19.0650366533331     
 translations:           0           1           0
 146 F= -.36484091E+04 E0= -.36484002E+04  d E =-.453659E-03  mag=    19.0896
 trial-energy change:   -0.000454  1 .order   -0.000518   -0.000688   -0.000348
 step:   0.4345(harm=  0.4345)  dis= 0.00065  next Energy= -3648.409294 (dE=-0.697E-03)
 reached required accuracy - stopping structural energy minimisation
 writing wavefunctions
