 ----------------------------------------------------
    OOO  PPPP  EEEEE N   N M   M PPPP
   O   O P   P E     NN  N MM MM P   P
   O   O PPPP  EEEEE N N N M M M PPPP   -- VERSION
   O   O P     E     N  NN M   M P
    OOO  P     EEEEE N   N M   M P
 ----------------------------------------------------
 running  512 mpi-ranks, with    1 threads/rank
 distrk:  each k-point on  512 cores,    1 groups
 distr:  one band on    4 cores,  128 groups
 vasp.6.3.2 27Jun22 (build Nov 12 2024 19:13:04) complex                        
  
 POSCAR found type information on POSCAR MnBrN C H 
 POSCAR found :  5 types and     635 ions
 scaLAPACK will be used
 LDA part: xc-table for Pade appr. of Perdew
 POSCAR, INCAR and KPOINTS ok, starting setup
 FFT: planning ... GRIDC
 FFT: planning ... GRID_SOFT
 FFT: planning ... GRID
 WAVECAR not read
 entering main loop
       N       E                     dE             d eps       ncg     rms          rms(c)
DAV:   1     0.981139545456E+04    0.98114E+04   -0.80282E+05  5376   0.119E+03
DAV:   2    -0.263902048640E+04   -0.12450E+05   -0.12022E+05  6400   0.259E+02
DAV:   3    -0.387308581565E+04   -0.12341E+04   -0.12213E+04  6400   0.864E+01
DAV:   4    -0.390631662117E+04   -0.33231E+02   -0.32982E+02  6656   0.161E+01
DAV:   5    -0.390735990261E+04   -0.10433E+01   -0.10419E+01  6656   0.269E+00    0.185E+02
DAV:   6    -0.481652369118E+04   -0.90916E+03   -0.47567E+03  6400   0.492E+01    0.479E+02
DAV:   7    -0.423742610854E+04    0.57910E+03   -0.94217E+02  6272   0.240E+01    0.257E+02
DAV:   8    -0.390894010809E+04    0.32849E+03   -0.18293E+03  6912   0.504E+01    0.139E+02
DAV:   9    -0.414804213035E+04   -0.23910E+03   -0.75079E+03  7680   0.364E+01    0.175E+02
DAV:  10    -0.362774775580E+04    0.52029E+03   -0.17747E+03  7552   0.305E+01    0.112E+02
DAV:  11    -0.372113781255E+04   -0.93390E+02   -0.99056E+02  7552   0.183E+01    0.116E+02
DAV:  12    -0.372911096485E+04   -0.79732E+01   -0.44668E+02  6656   0.187E+01    0.127E+02
DAV:  13    -0.360324488408E+04    0.12587E+03   -0.16123E+02  6656   0.149E+01    0.898E+01
DAV:  14    -0.361728267731E+04   -0.14038E+02   -0.93862E+01  6656   0.920E+00    0.107E+02
DAV:  15    -0.358523367721E+04    0.32049E+02   -0.14392E+02  6272   0.718E+00    0.983E+01
DAV:  16    -0.358238842293E+04    0.28453E+01   -0.16445E+02  6528   0.551E+00    0.916E+01
DAV:  17    -0.357753532715E+04    0.48531E+01   -0.66966E+01  6528   0.395E+00    0.942E+01
DAV:  18    -0.356711395477E+04    0.10421E+02   -0.14332E+02  6144   0.334E+00    0.809E+01
DAV:  19    -0.356347999971E+04    0.36340E+01   -0.32589E+01  6400   0.166E+00    0.779E+01
DAV:  20    -0.356092552949E+04    0.25545E+01   -0.52163E+00  6016   0.109E+00    0.744E+01
DAV:  21    -0.356047428328E+04    0.45125E+00   -0.20429E+00  5888   0.750E-01    0.762E+01
DAV:  22    -0.356113174445E+04   -0.65746E+00   -0.10368E+01  5632   0.841E-01    0.726E+01
DAV:  23    -0.356084818982E+04    0.28355E+00   -0.41473E-01  5632   0.638E-01    0.735E+01
DAV:  24    -0.356190349450E+04   -0.10553E+01   -0.23352E+01  5888   0.777E-01    0.666E+01
DAV:  25    -0.356066299014E+04    0.12405E+01   -0.35314E+00  5632   0.943E-01    0.682E+01
DAV:  26    -0.356117441296E+04   -0.51142E+00   -0.37060E+00  5632   0.604E-01    0.694E+01
DAV:  27    -0.356186556620E+04   -0.69115E+00   -0.36436E+00  5760   0.667E-01    0.740E+01
DAV:  28    -0.356223730315E+04   -0.37174E+00   -0.23137E-01  5632   0.519E-01    0.742E+01
DAV:  29    -0.356202358563E+04    0.21372E+00   -0.26022E-01  5760   0.237E-01    0.738E+01
DAV:  30    -0.356177371069E+04    0.24987E+00   -0.54185E+00  5888   0.587E-01    0.666E+01
DAV:  31    -0.356191113268E+04   -0.13742E+00   -0.64078E+00  5632   0.108E+00    0.676E+01
DAV:  32    -0.356156614739E+04    0.34499E+00   -0.49969E-01  5632   0.658E-01    0.693E+01
DAV:  33    -0.356149685293E+04    0.69294E-01   -0.32707E-01  5888   0.248E-01    0.680E+01
DAV:  34    -0.356138314793E+04    0.11371E+00   -0.21290E+00  6016   0.322E-01    0.665E+01
DAV:  35    -0.356126883873E+04    0.11431E+00   -0.94453E-02  5632   0.355E-01    0.669E+01
DAV:  36    -0.356115740774E+04    0.11143E+00   -0.29021E+00  6400   0.295E-01    0.621E+01
DAV:  37    -0.355990590587E+04    0.12515E+01   -0.63521E+00  6016   0.753E-01    0.607E+01
DAV:  38    -0.355973142776E+04    0.17448E+00   -0.41983E+00  5504   0.812E-01    0.608E+01
DAV:  39    -0.355984937569E+04   -0.11795E+00   -0.35291E+00  6272   0.597E-01    0.549E+01
DAV:  40    -0.355969909205E+04    0.15028E+00   -0.14815E-01  5760   0.450E-01    0.551E+01
DAV:  41    -0.355948950379E+04    0.20959E+00   -0.26955E+00  6528   0.354E-01    0.586E+01
DAV:  42    -0.355969936402E+04   -0.20986E+00   -0.27476E-01  5632   0.412E-01    0.581E+01
DAV:  43    -0.356044475515E+04   -0.74539E+00   -0.28546E+00  6144   0.435E-01    0.586E+01
DAV:  44    -0.356026902614E+04    0.17573E+00   -0.13736E+01  6400   0.978E-01    0.575E+01
DAV:  45    -0.356103549988E+04   -0.76647E+00   -0.27234E+00  6400   0.710E-01    0.541E+01
DAV:  46    -0.356356489981E+04   -0.25294E+01   -0.35041E+00  6016   0.158E+00    0.487E+01
DAV:  47    -0.356557645996E+04   -0.20116E+01   -0.17177E+00  6144   0.937E-01    0.460E+01
DAV:  48    -0.356627649193E+04   -0.70003E+00   -0.13148E+00  5888   0.481E-01    0.428E+01
DAV:  49    -0.356676646626E+04   -0.48997E+00   -0.10291E+00  6400   0.556E-01    0.399E+01
DAV:  50    -0.356720962544E+04   -0.44316E+00   -0.11190E+01  6400   0.150E+00    0.367E+01
DAV:  51    -0.357366163779E+04   -0.64520E+01   -0.12950E+01  6272   0.361E+00    0.410E+01
DAV:  52    -0.357047025780E+04    0.31914E+01   -0.19993E+01  6528   0.217E+00    0.340E+01
DAV:  53    -0.357154093202E+04   -0.10707E+01   -0.48261E+00  5632   0.164E+00    0.309E+01
DAV:  54    -0.357128291768E+04    0.25801E+00   -0.20997E+01  6784   0.235E+00    0.310E+01
DAV:  55    -0.357275133579E+04   -0.14684E+01   -0.27676E+00  5888   0.147E+00    0.304E+01
DAV:  56    -0.357099914855E+04    0.17522E+01   -0.15389E+01  6272   0.219E+00    0.252E+01
DAV:  57    -0.357146107845E+04   -0.46193E+00   -0.19013E+00  6016   0.117E+00    0.232E+01
DAV:  58    -0.357194225404E+04   -0.48118E+00   -0.15889E+00  6272   0.759E-01    0.219E+01
DAV:  59    -0.357240422939E+04   -0.46198E+00   -0.56712E+00  6016   0.144E+00    0.248E+01
DAV:  60    -0.357282379780E+04   -0.41957E+00   -0.37442E-01  5632   0.666E-01    0.255E+01
DAV:  61    -0.357244606040E+04    0.37774E+00   -0.96680E-01  6144   0.785E-01    0.265E+01
DAV:  62    -0.357244139259E+04    0.46678E-02   -0.47244E-02  5888   0.180E-01    0.264E+01
DAV:  63    -0.357232730124E+04    0.11409E+00   -0.18596E-01  6528   0.541E-01    0.254E+01
DAV:  64    -0.357220429386E+04    0.12301E+00   -0.60421E-01  6144   0.958E-01    0.228E+01
DAV:  65    -0.357230469241E+04   -0.10040E+00   -0.13394E-01  5888   0.365E-01    0.223E+01
DAV:  66    -0.357319762382E+04   -0.89293E+00   -0.31845E+00  6272   0.897E-01    0.209E+01
DAV:  67    -0.357362463725E+04   -0.42701E+00   -0.23960E-01  6144   0.570E-01    0.206E+01
DAV:  68    -0.357527265058E+04   -0.16480E+01   -0.88092E+00  6656   0.154E+00    0.291E+01
DAV:  69    -0.357477886793E+04    0.49378E+00   -0.55252E+00  5888   0.850E-01    0.231E+01
DAV:  70    -0.357570041123E+04   -0.92154E+00   -0.16207E+00  5888   0.561E-01    0.277E+01
DAV:  71    -0.357539629698E+04    0.30411E+00   -0.18929E+01  6656   0.234E+00    0.257E+01
DAV:  72    -0.357470103648E+04    0.69526E+00   -0.41950E+00  5760   0.170E+00    0.246E+01
DAV:  73    -0.357482614846E+04   -0.12511E+00   -0.36035E+00  6656   0.868E-01    0.298E+01
DAV:  74    -0.357463344068E+04    0.19271E+00   -0.16962E-01  5632   0.454E-01    0.299E+01
DAV:  75    -0.357460756320E+04    0.25877E-01   -0.64661E-03  6144   0.858E-02    0.300E+01
DAV:  76    -0.357505337260E+04   -0.44581E+00   -0.80898E+00  6528   0.941E-01    0.281E+01
DAV:  77    -0.357551904754E+04   -0.46567E+00   -0.12920E+00  5632   0.747E-01    0.312E+01
DAV:  78    -0.357542212107E+04    0.96926E-01   -0.10737E-01  6016   0.302E-01    0.314E+01
DAV:  79    -0.357562175009E+04   -0.19963E+00   -0.25298E-02  5760   0.183E-01    0.320E+01
DAV:  80    -0.357552168495E+04    0.10007E+00   -0.68391E-03  5888   0.963E-02    0.313E+01
DAV:  81    -0.357937840009E+04   -0.38567E+01   -0.58526E+01  6144   0.412E+00    0.353E+01
DAV:  82    -0.357582803556E+04    0.35504E+01   -0.23266E+01  6016   0.262E+00    0.212E+01
DAV:  83    -0.357620610440E+04   -0.37807E+00   -0.87782E+00  5760   0.162E+00    0.241E+01
DAV:  84    -0.357604744399E+04    0.15866E+00   -0.24582E-01  5888   0.515E-01    0.243E+01
DAV:  85    -0.357690883229E+04   -0.86139E+00   -0.31081E+00  5888   0.100E+00    0.231E+01
DAV:  86    -0.357636473432E+04    0.54410E+00   -0.30283E+00  5888   0.158E+00    0.251E+01
DAV:  87    -0.357662894133E+04   -0.26421E+00   -0.14020E+00  5888   0.937E-01    0.230E+01
DAV:  88    -0.357708876901E+04   -0.45983E+00   -0.62145E-01  6144   0.685E-01    0.229E+01
DAV:  89    -0.357713095509E+04   -0.42186E-01   -0.28895E+00  6016   0.744E-01    0.247E+01
DAV:  90    -0.357702691555E+04    0.10404E+00   -0.29722E+00  6400   0.880E-01    0.263E+01
DAV:  91    -0.357658771333E+04    0.43920E+00   -0.13353E+01  5632   0.149E+00    0.303E+01
DAV:  92    -0.357649355062E+04    0.94163E-01   -0.53781E-01  6016   0.639E-01    0.282E+01
DAV:  93    -0.357645529350E+04    0.38257E-01   -0.28600E-01  6656   0.220E-01    0.270E+01
DAV:  94    -0.357667785983E+04   -0.22257E+00   -0.57321E-01  6272   0.286E-01    0.279E+01
DAV:  95    -0.357671488244E+04   -0.37023E-01   -0.21802E-01  6400   0.219E-01    0.291E+01
DAV:  96    -0.357631963023E+04    0.39525E+00   -0.38091E+00  6016   0.206E+00    0.247E+01
DAV:  97    -0.357757498799E+04   -0.12554E+01   -0.15477E+00  6272   0.101E+00    0.259E+01
DAV:  98    -0.357796425674E+04   -0.38927E+00   -0.27329E+00  5888   0.103E+00    0.247E+01
DAV:  99    -0.357812891413E+04   -0.16466E+00   -0.16685E-01  6144   0.347E-01    0.248E+01
DAV: 100    -0.357803764866E+04    0.91265E-01   -0.10005E-01  5760   0.281E-01    0.248E+01
DAV: 101    -0.357859520949E+04   -0.55756E+00   -0.54694E+00  6272   0.120E+00    0.247E+01
DAV: 102    -0.357810144477E+04    0.49376E+00   -0.63133E+00  5760   0.108E+00    0.229E+01
DAV: 103    -0.357799931123E+04    0.10213E+00   -0.21971E-01  5760   0.437E-01    0.228E+01
DAV: 104    -0.357797934600E+04    0.19965E-01   -0.26404E-02  6272   0.132E-01    0.228E+01
DAV: 105    -0.357798788642E+04   -0.85404E-02   -0.88133E-03  6144   0.446E-02    0.228E+01
DAV: 106    -0.357789910376E+04    0.88783E-01   -0.19491E-01  6144   0.636E-01    0.223E+01
DAV: 107    -0.357778417692E+04    0.11493E+00   -0.31360E-01  6016   0.476E-01    0.227E+01
DAV: 108    -0.357780634490E+04   -0.22168E-01   -0.43407E-02  5760   0.199E-01    0.227E+01
DAV: 109    -0.357788891726E+04   -0.82572E-01   -0.79526E-02  6400   0.165E-01    0.224E+01
DAV: 110    -0.357787277035E+04    0.16147E-01   -0.72011E-03  5632   0.745E-02    0.224E+01
DAV: 111    -0.357801691947E+04   -0.14415E+00   -0.51376E+00  5888   0.208E+00    0.223E+01
DAV: 112    -0.357718220187E+04    0.83472E+00   -0.24981E+00  6016   0.140E+00    0.234E+01
DAV: 113    -0.357698384577E+04    0.19836E+00   -0.87441E-01  6016   0.750E-01    0.219E+01
DAV: 114    -0.357791777937E+04   -0.93393E+00   -0.71294E+00  5888   0.101E+00    0.242E+01
DAV: 115    -0.357759894097E+04    0.31884E+00   -0.15264E+00  5632   0.630E-01    0.251E+01
DAV: 116    -0.357618419572E+04    0.14147E+01   -0.18421E+01  5504   0.120E+00    0.233E+01
DAV: 117    -0.357624395358E+04   -0.59758E-01   -0.82816E-01  6272   0.645E-01    0.206E+01
DAV: 118    -0.357716052577E+04   -0.91657E+00   -0.13140E+00  5888   0.756E-01    0.200E+01
DAV: 119    -0.357754362866E+04   -0.38310E+00   -0.40332E-01  6016   0.672E-01    0.213E+01
DAV: 120    -0.357735492720E+04    0.18870E+00   -0.50438E-01  6016   0.478E-01    0.193E+01
DAV: 121    -0.357850722496E+04   -0.11523E+01   -0.18989E+01  5888   0.287E+00    0.225E+01
DAV: 122    -0.357897020951E+04   -0.46298E+00   -0.16413E+00  6144   0.148E+00    0.168E+01
DAV: 123    -0.358002810779E+04   -0.10579E+01   -0.64905E+00  6016   0.150E+00    0.136E+01
DAV: 124    -0.358114248845E+04   -0.11144E+01   -0.79278E-01  5888   0.811E-01    0.129E+01
DAV: 125    -0.358147541604E+04   -0.33293E+00   -0.15849E-01  6016   0.342E-01    0.129E+01
DAV: 126    -0.358280761801E+04   -0.13322E+01   -0.11890E+00  6400   0.118E+00    0.120E+01
DAV: 127    -0.358360805425E+04   -0.80044E+00   -0.93305E-01  6272   0.935E-01    0.118E+01
DAV: 128    -0.358394044167E+04   -0.33239E+00   -0.10280E+00  6656   0.836E-01    0.119E+01
DAV: 129    -0.358396499841E+04   -0.24557E-01   -0.13904E-01  6016   0.299E-01    0.120E+01
DAV: 130    -0.358396445131E+04    0.54710E-03   -0.62560E-03  5888   0.818E-02    0.120E+01
DAV: 131    -0.358437993614E+04   -0.41548E+00   -0.57630E-01  6144   0.106E+00    0.220E+01
DAV: 132    -0.358408860739E+04    0.29133E+00   -0.14701E-01  5888   0.395E-01    0.208E+01
DAV: 133    -0.358385882442E+04    0.22978E+00   -0.44170E-01  6016   0.241E-01    0.222E+01
DAV: 134    -0.358392944606E+04   -0.70622E-01   -0.56632E-02  5632   0.173E-01    0.232E+01
DAV: 135    -0.358390422098E+04    0.25225E-01   -0.44979E-01  5888   0.211E-01    0.187E+01
DAV: 136    -0.358423211907E+04   -0.32790E+00   -0.40609E+00  5888   0.771E-01    0.184E+01
DAV: 137    -0.358431115793E+04   -0.79039E-01   -0.57003E-01  6016   0.989E-01    0.216E+01
DAV: 138    -0.358402614740E+04    0.28501E+00   -0.19623E-01  5760   0.383E-01    0.196E+01
DAV: 139    -0.358390112945E+04    0.12502E+00   -0.73794E-01  6144   0.388E-01    0.215E+01
DAV: 140    -0.358390542266E+04   -0.42932E-02   -0.27539E-02  5632   0.147E-01    0.220E+01
DAV: 141    -0.358411704989E+04   -0.21163E+00   -0.11358E+01  6144   0.204E+00    0.279E+01
DAV: 142    -0.358428598882E+04   -0.16894E+00   -0.40304E+00  6272   0.101E+00    0.224E+01
DAV: 143    -0.358434303288E+04   -0.57044E-01   -0.25792E-01  6144   0.525E-01    0.217E+01
DAV: 144    -0.358451586944E+04   -0.17284E+00   -0.82237E-01  6144   0.891E-01    0.203E+01
DAV: 145    -0.358486722580E+04   -0.35136E+00   -0.40043E+00  6528   0.146E+00    0.248E+01
DAV: 146    -0.358494854784E+04   -0.81322E-01   -0.42800E-01  5632   0.664E-01    0.249E+01
DAV: 147    -0.358486389343E+04    0.84654E-01   -0.15137E-01  6400   0.394E-01    0.232E+01
DAV: 148    -0.358519831539E+04   -0.33442E+00   -0.95298E+00  6272   0.983E-01    0.237E+01
DAV: 149    -0.358525577128E+04   -0.57456E-01   -0.22212E-01  5632   0.533E-01    0.231E+01
DAV: 150    -0.358498145712E+04    0.27431E+00   -0.47537E-02  6016   0.197E-01    0.229E+01
DAV: 151    -0.358524410096E+04   -0.26264E+00   -0.13138E+00  5888   0.574E-01    0.273E+01
DAV: 152    -0.358535642716E+04   -0.11233E+00   -0.66860E-02  5632   0.276E-01    0.280E+01
DAV: 153    -0.358548222842E+04   -0.12580E+00   -0.18519E-01  6400   0.248E-01    0.284E+01
DAV: 154    -0.358529255859E+04    0.18967E+00   -0.24075E-01  5632   0.217E-01    0.282E+01
DAV: 155    -0.358532783898E+04   -0.35280E-01   -0.27611E-02  5632   0.172E-01    0.283E+01
DAV: 156    -0.358378037622E+04    0.15475E+01   -0.18251E+01  6016   0.176E+00    0.254E+01
DAV: 157    -0.358355226472E+04    0.22811E+00   -0.46166E+00  6016   0.101E+00    0.237E+01
DAV: 158    -0.358359882783E+04   -0.46563E-01   -0.38073E+00  5888   0.106E+00    0.239E+01
DAV: 159    -0.358376539983E+04   -0.16657E+00   -0.47918E+00  5632   0.629E-01    0.202E+01
DAV: 160    -0.358405494715E+04   -0.28955E+00   -0.91928E-01  5888   0.779E-01    0.174E+01
DAV: 161    -0.358426583640E+04   -0.21089E+00   -0.32392E+00  5760   0.121E+00    0.169E+01
DAV: 162    -0.358399804293E+04    0.26779E+00   -0.90768E-01  6144   0.738E-01    0.175E+01
DAV: 163    -0.358419114076E+04   -0.19310E+00   -0.33794E-01  6656   0.469E-01    0.173E+01
DAV: 164    -0.358461108215E+04   -0.41994E+00   -0.84860E-01  7040   0.557E-01    0.167E+01
DAV: 165    -0.358494943862E+04   -0.33836E+00   -0.36794E-01  6784   0.348E-01    0.163E+01
DAV: 166    -0.358506700628E+04   -0.11757E+00   -0.15357E+00  6528   0.974E-01    0.157E+01
DAV: 167    -0.358516354624E+04   -0.96540E-01   -0.75363E-01  6912   0.791E-01    0.149E+01
DAV: 168    -0.358517736518E+04   -0.13819E-01   -0.65466E-01  7040   0.654E-01    0.153E+01
DAV: 169    -0.358526263973E+04   -0.85275E-01   -0.10048E-01  5632   0.306E-01    0.154E+01
DAV: 170    -0.358525884982E+04    0.37899E-02   -0.17324E-02  6528   0.162E-01    0.149E+01
DAV: 171    -0.358533891622E+04   -0.80066E-01   -0.85263E-01  6272   0.830E-01    0.126E+01
DAV: 172    -0.358522197918E+04    0.11694E+00   -0.14113E+00  5888   0.799E-01    0.145E+01
DAV: 173    -0.358485185850E+04    0.37012E+00   -0.63264E-01  5888   0.606E-01    0.146E+01
DAV: 174    -0.358486623710E+04   -0.14379E-01   -0.67096E-02  5888   0.226E-01    0.146E+01
DAV: 175    -0.358485540247E+04    0.10835E-01   -0.13899E-02  6016   0.984E-02    0.144E+01
DAV: 176    -0.358452413083E+04    0.33127E+00   -0.10908E-01  5760   0.346E-01    0.138E+01
DAV: 177    -0.358442913288E+04    0.94998E-01   -0.47042E-02  6144   0.209E-01    0.132E+01
DAV: 178    -0.358446649075E+04   -0.37358E-01   -0.76622E-03  5632   0.831E-02    0.134E+01
DAV: 179    -0.358441354297E+04    0.52948E-01   -0.25135E-03  5888   0.369E-02    0.134E+01
DAV: 180    -0.358452858366E+04   -0.11504E+00   -0.31089E-02  5632   0.110E-01    0.130E+01
DAV: 181    -0.358389474551E+04    0.63384E+00   -0.98911E+00  5760   0.205E+00    0.115E+01
DAV: 182    -0.358345179222E+04    0.44295E+00   -0.11633E+00  5888   0.876E-01    0.113E+01
DAV: 183    -0.358324149415E+04    0.21030E+00   -0.29376E-01  7040   0.445E-01    0.114E+01
DAV: 184    -0.358322886777E+04    0.12626E-01   -0.20741E-01  6784   0.282E-01    0.113E+01
DAV: 185    -0.358333643464E+04   -0.10757E+00   -0.44118E-01  6656   0.382E-01    0.112E+01
DAV: 186    -0.358536640630E+04   -0.20300E+01   -0.56161E+00  5888   0.156E+00    0.157E+01
DAV: 187    -0.358546608459E+04   -0.99678E-01   -0.47365E-01  6016   0.712E-01    0.147E+01
DAV: 188    -0.358575606538E+04   -0.28998E+00   -0.16348E+00  6272   0.537E-01    0.156E+01
DAV: 189    -0.358571207966E+04    0.43986E-01   -0.56156E-02  5760   0.231E-01    0.156E+01
DAV: 190    -0.358570653087E+04    0.55488E-02   -0.13404E-02  6272   0.104E-01    0.155E+01
DAV: 191    -0.358249553059E+04    0.32110E+01   -0.14304E+01  6400   0.295E+00    0.215E+01
DAV: 192    -0.358190942693E+04    0.58610E+00   -0.16922E+00  6144   0.109E+00    0.133E+01
DAV: 193    -0.358327249795E+04   -0.13631E+01   -0.20292E+00  6272   0.114E+00    0.153E+01
DAV: 194    -0.358253841598E+04    0.73408E+00   -0.69539E-01  6144   0.537E-01    0.149E+01
DAV: 195    -0.358298008871E+04   -0.44167E+00   -0.11437E+00  6144   0.601E-01    0.141E+01
DAV: 196    -0.358597041318E+04   -0.29903E+01   -0.24268E+00  6144   0.146E+00    0.114E+01
DAV: 197    -0.358636477817E+04   -0.39436E+00   -0.39864E+00  6144   0.926E-01    0.189E+01
DAV: 198    -0.358641121147E+04   -0.46433E-01   -0.19453E+00  5888   0.746E-01    0.131E+01
DAV: 199    -0.358655311654E+04   -0.14191E+00   -0.29323E-01  6016   0.331E-01    0.148E+01
DAV: 200    -0.358651772079E+04    0.35396E-01   -0.26310E-02  5632   0.149E-01    0.148E+01
DAV: 201    -0.358608732923E+04    0.43039E+00   -0.11046E+00  6272   0.684E-01    0.151E+01
DAV: 202    -0.358638893055E+04   -0.30160E+00   -0.90868E-01  6016   0.414E-01    0.148E+01
DAV: 203    -0.358664175894E+04   -0.25283E+00   -0.10336E+00  5760   0.238E-01    0.143E+01
DAV: 204    -0.358686727960E+04   -0.22552E+00   -0.69820E-01  5888   0.212E-01    0.138E+01
DAV: 205    -0.358698268745E+04   -0.11541E+00   -0.68706E-01  5760   0.360E-01    0.133E+01
DAV: 206    -0.358793944910E+04   -0.95676E+00   -0.53517E+00  6144   0.123E+00    0.148E+01
DAV: 207    -0.358790239693E+04    0.37052E-01   -0.21388E-01  5888   0.347E-01    0.144E+01
DAV: 208    -0.358775283334E+04    0.14956E+00   -0.12962E+00  5376   0.618E-01    0.131E+01
DAV: 209    -0.358720592320E+04    0.54691E+00   -0.14773E+00  5888   0.537E-01    0.128E+01
DAV: 210    -0.358719204206E+04    0.13881E-01   -0.53907E-02  6144   0.166E-01    0.126E+01
DAV: 211    -0.358737133924E+04   -0.17930E+00   -0.96684E-01  5760   0.269E-01    0.101E+01
DAV: 212    -0.358763571101E+04   -0.26437E+00   -0.61722E-01  6272   0.515E-01    0.102E+01
DAV: 213    -0.358771952378E+04   -0.83813E-01   -0.53385E-02  6016   0.209E-01    0.960E+00
DAV: 214    -0.358755635399E+04    0.16317E+00   -0.18179E+00  6016   0.872E-01    0.146E+01
DAV: 215    -0.358741289835E+04    0.14346E+00   -0.11680E+00  6656   0.808E-01    0.756E+00
DAV: 216    -0.358775710081E+04   -0.34420E+00   -0.33608E-01  6016   0.488E-01    0.692E+00
DAV: 217    -0.358744965437E+04    0.30745E+00   -0.53806E-01  5888   0.622E-01    0.119E+01
DAV: 218    -0.358745843356E+04   -0.87792E-02   -0.68524E-02  5888   0.247E-01    0.118E+01
DAV: 219    -0.358743536941E+04    0.23064E-01   -0.22053E-03  6272   0.435E-02    0.118E+01
DAV: 220    -0.358745514231E+04   -0.19773E-01   -0.19085E-03  5632   0.316E-02    0.118E+01
DAV: 221    -0.358756353578E+04   -0.10839E+00   -0.10671E+00  5888   0.411E-01    0.148E+01
DAV: 222    -0.358752912436E+04    0.34411E-01   -0.35747E-02  5632   0.185E-01    0.149E+01
DAV: 223    -0.358758149532E+04   -0.52371E-01   -0.56191E-03  6144   0.603E-02    0.149E+01
DAV: 224    -0.358792191296E+04   -0.34042E+00   -0.13402E-01  5632   0.194E-01    0.152E+01
DAV: 225    -0.358787867985E+04    0.43233E-01   -0.14499E-02  5888   0.107E-01    0.142E+01
DAV: 226    -0.358634772604E+04    0.15310E+01   -0.35324E+00  5760   0.901E-01    0.134E+01
DAV: 227    -0.358628318667E+04    0.64539E-01   -0.24163E-01  6016   0.396E-01    0.138E+01
DAV: 228    -0.358626514083E+04    0.18046E-01   -0.13950E-02  5888   0.109E-01    0.138E+01
DAV: 229    -0.358630866265E+04   -0.43522E-01   -0.10310E-01  5632   0.174E-01    0.140E+01
DAV: 230    -0.358609924127E+04    0.20942E+00   -0.68043E-02  6272   0.191E-01    0.143E+01
DAV: 231    -0.358823069515E+04   -0.21315E+01   -0.13531E+01  5760   0.124E+00    0.109E+01
DAV: 232    -0.358793252513E+04    0.29817E+00   -0.49643E-01  5632   0.585E-01    0.122E+01
DAV: 233    -0.358790187281E+04    0.30652E-01   -0.20681E-01  5888   0.462E-01    0.851E+00
DAV: 234    -0.358830023728E+04   -0.39836E+00   -0.21676E-01  5888   0.369E-01    0.945E+00
DAV: 235    -0.358832518138E+04   -0.24944E-01   -0.29073E-02  6400   0.169E-01    0.931E+00
DAV: 236    -0.358849681540E+04   -0.17163E+00   -0.31649E-01  5760   0.417E-01    0.886E+00
DAV: 237    -0.358861979254E+04   -0.12298E+00   -0.80183E-02  6016   0.265E-01    0.912E+00
DAV: 238    -0.358867003547E+04   -0.50243E-01   -0.34791E-02  6144   0.181E-01    0.919E+00
DAV: 239    -0.358871114455E+04   -0.41109E-01   -0.12610E-02  6144   0.962E-02    0.977E+00
DAV: 240    -0.358866497467E+04    0.46170E-01   -0.17168E-02  5760   0.127E-01    0.959E+00
DAV: 241    -0.358881273790E+04   -0.14776E+00   -0.86387E-01  5760   0.463E-01    0.661E+00
DAV: 242    -0.358885121347E+04   -0.38476E-01   -0.11947E-01  5632   0.332E-01    0.672E+00
DAV: 243    -0.358876058905E+04    0.90624E-01   -0.86083E-02  5888   0.346E-01    0.109E+01
DAV: 244    -0.358857365561E+04    0.18693E+00   -0.77840E-02  5760   0.226E-01    0.117E+01
DAV: 245    -0.358848783531E+04    0.85820E-01   -0.31699E-02  6400   0.124E-01    0.119E+01
DAV: 246    -0.358967468123E+04   -0.11868E+01   -0.76690E+00  5760   0.166E+00    0.172E+01
DAV: 247    -0.358959300618E+04    0.81675E-01   -0.27428E-01  5760   0.426E-01    0.170E+01
DAV: 248    -0.358950147401E+04    0.91532E-01   -0.29283E-02  6272   0.187E-01    0.161E+01
DAV: 249    -0.358958523628E+04   -0.83762E-01   -0.98413E-02  5760   0.305E-01    0.157E+01
DAV: 250    -0.358956564169E+04    0.19595E-01   -0.22569E-01  6528   0.501E-01    0.151E+01
DAV: 251    -0.358986870938E+04   -0.30307E+00   -0.74268E+00  6400   0.218E+00    0.101E+01
DAV: 252    -0.358994067379E+04   -0.71964E-01   -0.79790E-01  5888   0.784E-01    0.937E+00
DAV: 253    -0.358970163847E+04    0.23904E+00   -0.35019E-01  6912   0.540E-01    0.911E+00
DAV: 254    -0.358949362020E+04    0.20802E+00   -0.19860E-01  6656   0.521E-01    0.869E+00
DAV: 255    -0.358952607261E+04   -0.32452E-01   -0.83246E-01  6144   0.496E-01    0.138E+01
DAV: 256    -0.358968404041E+04   -0.15797E+00   -0.97726E+00  6144   0.953E-01    0.126E+01
DAV: 257    -0.358966150023E+04    0.22540E-01   -0.16546E-01  5888   0.363E-01    0.122E+01
DAV: 258    -0.358943234998E+04    0.22915E+00   -0.20752E-01  6272   0.385E-01    0.110E+01
DAV: 259    -0.358938671360E+04    0.45636E-01   -0.94795E-02  6528   0.285E-01    0.782E+00
DAV: 260    -0.358947278766E+04   -0.86074E-01   -0.48490E-02  5760   0.211E-01    0.711E+00
DAV: 261    -0.358957943656E+04   -0.10665E+00   -0.62887E-01  6144   0.359E-01    0.118E+01
DAV: 262    -0.358941197748E+04    0.16746E+00   -0.95783E-02  5760   0.309E-01    0.760E+00
DAV: 263    -0.358930662283E+04    0.10535E+00   -0.74759E-01  5888   0.260E-01    0.119E+01
DAV: 264    -0.358926994049E+04    0.36682E-01   -0.25824E-02  5760   0.153E-01    0.117E+01
DAV: 265    -0.358925810030E+04    0.11840E-01   -0.70770E-04  6656   0.239E-02    0.118E+01
DAV: 266    -0.358927247834E+04   -0.14378E-01   -0.29993E+00  5888   0.867E-01    0.747E+00
DAV: 267    -0.358929150113E+04   -0.19023E-01   -0.19964E-01  6272   0.620E-01    0.715E+00
DAV: 268    -0.358926087304E+04    0.30628E-01   -0.12299E-01  6400   0.500E-01    0.653E+00
DAV: 269    -0.358929418993E+04   -0.33317E-01   -0.12153E-01  6656   0.316E-01    0.780E+00
DAV: 270    -0.358927404170E+04    0.20148E-01   -0.74789E-02  6144   0.191E-01    0.654E+00
DAV: 271    -0.358936356011E+04   -0.89518E-01   -0.26681E-01  6144   0.261E-01    0.105E+01
DAV: 272    -0.358934304060E+04    0.20520E-01   -0.36599E-01  6272   0.455E-01    0.108E+01
DAV: 273    -0.358934326851E+04   -0.22791E-03   -0.37887E-02  6528   0.171E-01    0.116E+01
DAV: 274    -0.358932785629E+04    0.15412E-01   -0.49136E-03  5632   0.637E-02    0.116E+01
DAV: 275    -0.358932449345E+04    0.33628E-02   -0.15022E-04  6784   0.108E-02    0.116E+01
DAV: 276    -0.359045502177E+04   -0.11305E+01   -0.16440E+01  6016   0.181E+00    0.128E+01
DAV: 277    -0.359068814067E+04   -0.23312E+00   -0.31092E-01  5760   0.495E-01    0.137E+01
DAV: 278    -0.359052747247E+04    0.16067E+00   -0.50240E-02  5888   0.307E-01    0.122E+01
DAV: 279    -0.359025256842E+04    0.27490E+00   -0.25269E-01  6016   0.810E-01    0.110E+01
DAV: 280    -0.359003355734E+04    0.21901E+00   -0.28265E+00  6400   0.120E+00    0.146E+01
DAV: 281    -0.359004633659E+04   -0.12779E-01   -0.22026E-01  6400   0.378E-01    0.130E+01
DAV: 282    -0.358950923010E+04    0.53711E+00   -0.47455E+00  6144   0.736E-01    0.617E+00
DAV: 283    -0.358982750462E+04   -0.31827E+00   -0.14005E-01  5888   0.469E-01    0.122E+01
DAV: 284    -0.358989334737E+04   -0.65843E-01   -0.40706E-02  5888   0.219E-01    0.118E+01
DAV: 285    -0.358982530889E+04    0.68038E-01   -0.12371E-02  6016   0.137E-01    0.125E+01
DAV: 286    -0.358974275009E+04    0.82559E-01   -0.73151E-02  6272   0.185E-01    0.121E+01
DAV: 287    -0.358974556379E+04   -0.28137E-02   -0.33298E-03  5760   0.551E-02    0.121E+01
DAV: 288    -0.358974624022E+04   -0.67644E-03   -0.65125E-05  6528   0.861E-03    0.121E+01
DAV: 289    -0.358973785735E+04    0.83829E-02   -0.26746E-03  6016   0.474E-02    0.119E+01
DAV: 290    -0.358967865581E+04    0.59202E-01   -0.40524E-02  6528   0.134E-01    0.117E+01
DAV: 291    -0.358949944533E+04    0.17921E+00   -0.52486E-01  6144   0.387E-01    0.624E+00
DAV: 292    -0.358951466748E+04   -0.15222E-01   -0.10182E-01  5632   0.377E-01    0.691E+00
DAV: 293    -0.358950651681E+04    0.81507E-02   -0.13311E-01  6656   0.302E-01    0.115E+01
DAV: 294    -0.358948867392E+04    0.17843E-01   -0.25274E-02  5632   0.177E-01    0.115E+01
DAV: 295    -0.358947269557E+04    0.15978E-01   -0.14486E-03  6144   0.399E-02    0.115E+01
DAV: 296    -0.358952573331E+04   -0.53038E-01   -0.85655E-01  6784   0.438E-01    0.979E+00
DAV: 297    -0.358954214480E+04   -0.16411E-01   -0.77068E-02  5760   0.265E-01    0.993E+00
DAV: 298    -0.358952462419E+04    0.17521E-01   -0.53515E-03  6144   0.782E-02    0.994E+00
DAV: 299    -0.358951098484E+04    0.13639E-01   -0.11348E-03  5888   0.379E-02    0.997E+00
DAV: 300    -0.358950946829E+04    0.15166E-02   -0.11584E-04  6144   0.125E-02    0.996E+00
DAV: 301    -0.359005186017E+04   -0.54239E+00   -0.29392E+00  6528   0.179E+00    0.990E+00
DAV: 302    -0.359006986890E+04   -0.18009E-01   -0.42719E-01  5632   0.897E-01    0.100E+01
DAV: 303    -0.358994906457E+04    0.12080E+00   -0.22746E-01  6272   0.578E-01    0.980E+00
DAV: 304    -0.358991465896E+04    0.34406E-01   -0.64672E-02  6528   0.237E-01    0.978E+00
DAV: 305    -0.358991376484E+04    0.89411E-03   -0.69160E-03  5632   0.728E-02    0.979E+00
DAV: 306    -0.358974713149E+04    0.16663E+00   -0.11423E+00  6016   0.965E-01    0.897E+00
DAV: 307    -0.358975363686E+04   -0.65054E-02   -0.20012E-01  5888   0.462E-01    0.869E+00
DAV: 308    -0.358965091046E+04    0.10273E+00   -0.17345E-01  6912   0.474E-01    0.805E+00
DAV: 309    -0.358957129682E+04    0.79614E-01   -0.33819E-01  7040   0.607E-01    0.376E+00
DAV: 310    -0.358965605771E+04   -0.84761E-01   -0.11169E-01  5632   0.301E-01    0.382E+00
DAV: 311    -0.358965285831E+04    0.31994E-02   -0.40639E-02  6784   0.208E-01    0.380E+00
DAV: 312    -0.358963387497E+04    0.18983E-01   -0.69320E-02  6912   0.239E-01    0.366E+00
DAV: 313    -0.358963009490E+04    0.37801E-02   -0.71051E-02  7040   0.222E-01    0.359E+00
DAV: 314    -0.358965825117E+04   -0.28156E-01   -0.14588E-01  6400   0.285E-01    0.486E+00
DAV: 315    -0.358966422789E+04   -0.59767E-02   -0.24031E-02  5632   0.152E-01    0.614E+00
DAV: 316    -0.358977826011E+04   -0.11403E+00   -0.18597E-01  6656   0.243E-01    0.977E+00
DAV: 317    -0.358980690608E+04   -0.28646E-01   -0.22403E-01  6272   0.165E-01    0.967E+00
DAV: 318    -0.358979333407E+04    0.13572E-01   -0.11616E-01  6272   0.128E-01    0.942E+00
DAV: 319    -0.358971653640E+04    0.76798E-01   -0.12825E-02  6272   0.125E-01    0.926E+00
DAV: 320    -0.358956424467E+04    0.15229E+00   -0.17134E-02  6528   0.194E-01    0.905E+00
DAV: 321    -0.358946379324E+04    0.10045E+00   -0.29650E-02  6912   0.163E-01    0.792E+00
DAV: 322    -0.358942060002E+04    0.43193E-01   -0.16493E-02  6400   0.134E-01    0.583E+00
DAV: 323    -0.358950036910E+04   -0.79769E-01   -0.14614E-02  6528   0.151E-01    0.871E+00
DAV: 324    -0.358947277749E+04    0.27592E-01   -0.40898E-03  5632   0.601E-02    0.871E+00
DAV: 325    -0.358946798954E+04    0.47879E-02   -0.13919E-04  6528   0.114E-02    0.872E+00
DAV: 326    -0.358949856688E+04   -0.30577E-01   -0.14184E+01  6528   0.123E+00    0.399E+00
DAV: 327    -0.358972364050E+04   -0.22507E+00   -0.32806E-01  5888   0.437E-01    0.390E+00
DAV: 328    -0.358965497226E+04    0.68668E-01   -0.19487E-01  6656   0.494E-01    0.345E+00
DAV: 329    -0.358960242283E+04    0.52549E-01   -0.22990E-01  6784   0.483E-01    0.276E+00
DAV: 330    -0.358963668435E+04   -0.34262E-01   -0.19019E-01  6912   0.250E-01    0.679E+00
DAV: 331    -0.358957452145E+04    0.62163E-01   -0.37000E-01  6144   0.392E-01    0.256E+00
DAV: 332    -0.358960383619E+04   -0.29315E-01   -0.17172E-01  6016   0.235E-01    0.366E+00
DAV: 333    -0.358958881161E+04    0.15025E-01   -0.41303E-02  6272   0.262E-01    0.245E+00
DAV: 334    -0.358957556220E+04    0.13249E-01   -0.53795E-02  6400   0.183E-01    0.246E+00
DAV: 335    -0.358955321773E+04    0.22344E-01   -0.83485E-02  6400   0.206E-01    0.326E+00
DAV: 336    -0.358953341971E+04    0.19798E-01   -0.65371E-02  6272   0.222E-01    0.414E+00
DAV: 337    -0.358952917913E+04    0.42406E-02   -0.41317E-02  5888   0.148E-01    0.355E+00
DAV: 338    -0.358953510130E+04   -0.59222E-02   -0.86709E-03  6016   0.853E-02    0.409E+00
DAV: 339    -0.358953113802E+04    0.39633E-02   -0.30264E-03  6656   0.419E-02    0.431E+00
DAV: 340    -0.358952809300E+04    0.30450E-02   -0.38663E-03  6144   0.595E-02    0.389E+00
DAV: 341    -0.358956051217E+04   -0.32419E-01   -0.45449E-01  6400   0.503E-01    0.435E+00
DAV: 342    -0.358955525873E+04    0.52534E-02   -0.37440E-02  6016   0.137E-01    0.467E+00
DAV: 343    -0.358954466578E+04    0.10593E-01   -0.55865E-03  5888   0.942E-02    0.484E+00
DAV: 344    -0.358954414683E+04    0.51895E-03   -0.40410E-03  6144   0.599E-02    0.487E+00
DAV: 345    -0.358954351618E+04    0.63065E-03   -0.60613E-04  5632   0.222E-02    0.487E+00
DAV: 346    -0.358955172786E+04   -0.82117E-02   -0.42804E-03  6144   0.904E-02    0.485E+00
DAV: 347    -0.358955237196E+04   -0.64410E-03   -0.95859E-04  5760   0.236E-02    0.486E+00
DAV: 348    -0.358955245703E+04   -0.85075E-04   -0.12555E-04  6656   0.853E-03    0.487E+00
DAV: 349    -0.358955160503E+04    0.85200E-03   -0.57138E-04  6272   0.117E-02    0.488E+00
DAV: 350    -0.358955267956E+04   -0.10745E-02   -0.17567E-03  6272   0.219E-02    0.487E+00
DAV: 351    -0.358954188136E+04    0.10798E-01   -0.55895E-03  6784   0.835E-02    0.458E+00
DAV: 352    -0.358954298225E+04   -0.11009E-02   -0.21756E-03  6016   0.327E-02    0.451E+00
DAV: 353    -0.358954320362E+04   -0.22137E-03   -0.38976E-03  6144   0.391E-02    0.448E+00
DAV: 354    -0.358953786766E+04    0.53360E-02   -0.59601E-02  6272   0.125E-01    0.448E+00
DAV: 355    -0.358953872407E+04   -0.85641E-03   -0.23797E-02  6528   0.627E-02    0.445E+00
DAV: 356    -0.358955736882E+04   -0.18645E-01   -0.24518E-02  6272   0.115E-01    0.436E+00
DAV: 357    -0.358956129130E+04   -0.39225E-02   -0.21252E-03  5760   0.405E-02    0.436E+00
DAV: 358    -0.358956501803E+04   -0.37267E-02   -0.73729E-03  6656   0.595E-02    0.438E+00
DAV: 359    -0.358956868681E+04   -0.36688E-02   -0.11656E-02  6912   0.744E-02    0.441E+00
DAV: 360    -0.358957120171E+04   -0.25149E-02   -0.62846E-03  6400   0.778E-02    0.451E+00
DAV: 361    -0.358956802078E+04    0.31809E-02   -0.89785E-01  6144   0.884E-01    0.308E+00
DAV: 362    -0.358962667113E+04   -0.58650E-01   -0.72265E-02  5632   0.208E-01    0.387E+00
DAV: 363    -0.358961859525E+04    0.80759E-02   -0.10756E-02  5760   0.106E-01    0.289E+00
DAV: 364    -0.358958511976E+04    0.33475E-01   -0.81637E-01  6144   0.454E-01    0.326E+00
DAV: 365    -0.358960640918E+04   -0.21289E-01   -0.88163E-02  6400   0.207E-01    0.359E+00
DAV: 366    -0.358963596703E+04   -0.29558E-01   -0.82630E-01  6144   0.512E-01    0.453E+00
DAV: 367    -0.358966744439E+04   -0.31477E-01   -0.11546E-01  6144   0.258E-01    0.289E+00
DAV: 368    -0.358960891988E+04    0.58525E-01   -0.30578E-01  6272   0.329E-01    0.314E+00
DAV: 369    -0.358962815985E+04   -0.19240E-01   -0.24209E-02  5632   0.177E-01    0.306E+00
DAV: 370    -0.358962646521E+04    0.16946E-02   -0.36608E-03  5888   0.637E-02    0.304E+00
DAV: 371    -0.358962439740E+04    0.20678E-02   -0.33109E-02  6144   0.125E-01    0.309E+00
DAV: 372    -0.358961607778E+04    0.83196E-02   -0.52355E-02  6400   0.202E-01    0.302E+00
DAV: 373    -0.358962239296E+04   -0.63152E-02   -0.31679E-02  6400   0.109E-01    0.310E+00
DAV: 374    -0.358961989145E+04    0.25015E-02   -0.39401E-03  5888   0.627E-02    0.310E+00
DAV: 375    -0.358962822277E+04   -0.83313E-02   -0.23456E-03  6400   0.354E-02    0.309E+00
DAV: 376    -0.358965456962E+04   -0.26347E-01   -0.15807E-01  6272   0.306E-01    0.292E+00
DAV: 377    -0.358967088597E+04   -0.16316E-01   -0.26338E-02  6272   0.118E-01    0.295E+00
DAV: 378    -0.358967337698E+04   -0.24910E-02   -0.13507E-02  6400   0.978E-02    0.297E+00
DAV: 379    -0.358969294613E+04   -0.19569E-01   -0.40588E-02  6528   0.120E-01    0.306E+00
DAV: 380    -0.358970504991E+04   -0.12104E-01   -0.19090E-02  6784   0.877E-02    0.316E+00
DAV: 381    -0.358971545433E+04   -0.10404E-01   -0.59501E-01  6400   0.388E-01    0.477E+00
DAV: 382    -0.358973398357E+04   -0.18529E-01   -0.24444E-02  5632   0.162E-01    0.472E+00
DAV: 383    -0.358973006847E+04    0.39151E-02   -0.98640E-04  6272   0.387E-02    0.462E+00
DAV: 384    -0.358973409071E+04   -0.40222E-02   -0.44902E-03  6400   0.465E-02    0.472E+00
DAV: 385    -0.358975616666E+04   -0.22076E-01   -0.57490E-02  6400   0.145E-01    0.686E+00
DAV: 386    -0.358973139631E+04    0.24770E-01   -0.70414E-03  5632   0.102E-01    0.664E+00
DAV: 387    -0.358973127217E+04    0.12414E-03   -0.69274E-04  6272   0.209E-02    0.694E+00
DAV: 388    -0.358973250111E+04   -0.12289E-02   -0.10600E-02  6400   0.855E-02    0.664E+00
DAV: 389    -0.358972693488E+04    0.55662E-02   -0.24517E-02  6528   0.880E-02    0.517E+00
DAV: 390    -0.358973862575E+04   -0.11691E-01   -0.47896E-02  6528   0.206E-01    0.438E+00
DAV: 391    -0.358972314230E+04    0.15483E-01   -0.85631E-02  6912   0.221E-01    0.369E+00
DAV: 392    -0.358974626035E+04   -0.23118E-01   -0.13071E-02  5632   0.114E-01    0.369E+00
DAV: 393    -0.358974974636E+04   -0.34860E-02   -0.79981E-04  5632   0.334E-02    0.369E+00
DAV: 394    -0.358975119802E+04   -0.14517E-02   -0.24878E-04  6400   0.147E-02    0.370E+00
DAV: 395    -0.358975027990E+04    0.91812E-03   -0.36474E-05  6144   0.630E-03    0.369E+00
DAV: 396    -0.358975190432E+04   -0.16244E-02   -0.69924E-02  6400   0.143E-01    0.390E+00
DAV: 397    -0.358975036333E+04    0.15410E-02   -0.10633E-02  6016   0.894E-02    0.393E+00
DAV: 398    -0.358975143254E+04   -0.10692E-02   -0.60745E-03  6144   0.442E-02    0.397E+00
DAV: 399    -0.358975549998E+04   -0.40674E-02   -0.44667E-03  6784   0.311E-02    0.403E+00
DAV: 400    -0.358976115836E+04   -0.56584E-02   -0.27740E-02  6272   0.688E-02    0.407E+00
DAV: 401    -0.358979820595E+04   -0.37048E-01   -0.90467E-02  6400   0.196E-01    0.537E+00
DAV: 402    -0.358975309107E+04    0.45115E-01   -0.10112E-01  6528   0.181E-01    0.373E+00
DAV: 403    -0.358977878442E+04   -0.25693E-01   -0.36275E-02  6272   0.119E-01    0.374E+00
DAV: 404    -0.358978912079E+04   -0.10336E-01   -0.58351E-02  6400   0.119E-01    0.383E+00
DAV: 405    -0.358979920927E+04   -0.10088E-01   -0.65760E-03  6272   0.809E-02    0.430E+00
DAV: 406    -0.358980290496E+04   -0.36957E-02   -0.54994E+00  6400   0.112E+00    0.163E+01
DAV: 407    -0.358972092340E+04    0.81982E-01   -0.50641E+00  6272   0.111E+00    0.111E+01
DAV: 408    -0.358965945005E+04    0.61473E-01   -0.18834E-01  6144   0.384E-01    0.430E+00
DAV: 409    -0.358973092021E+04   -0.71470E-01   -0.66071E-02  5888   0.199E-01    0.385E+00
DAV: 410    -0.358974583804E+04   -0.14918E-01   -0.22717E-02  6016   0.119E-01    0.453E+00
DAV: 411    -0.358957169839E+04    0.17414E+00   -0.10216E+01  6656   0.192E+00    0.104E+01
DAV: 412    -0.358957188469E+04   -0.18630E-03   -0.14929E+00  6400   0.124E+00    0.439E+00
DAV: 413    -0.358966083306E+04   -0.88948E-01   -0.36528E-01  6784   0.417E-01    0.335E+00
DAV: 414    -0.358968586252E+04   -0.25029E-01   -0.87644E-02  5888   0.249E-01    0.286E+00
DAV: 415    -0.358969491134E+04   -0.90488E-02   -0.47695E-02  6400   0.119E-01    0.263E+00
DAV: 416    -0.358965647144E+04    0.38440E-01   -0.43584E-01  6272   0.376E-01    0.177E+00
DAV: 417    -0.358967793879E+04   -0.21467E-01   -0.58517E-02  6272   0.208E-01    0.189E+00
DAV: 418    -0.358966817360E+04    0.97652E-02   -0.27286E-01  6656   0.221E-01    0.204E+00
DAV: 419    -0.358966887329E+04   -0.69968E-03   -0.15291E-01  6656   0.149E-01    0.239E+00
DAV: 420    -0.358967971988E+04   -0.10847E-01   -0.98282E-02  6272   0.198E-01    0.152E+00
DAV: 421    -0.358966485579E+04    0.14864E-01   -0.43439E-01  6528   0.327E-01    0.169E+00
DAV: 422    -0.358968151515E+04   -0.16659E-01   -0.30574E-02  6144   0.160E-01    0.162E+00
DAV: 423    -0.358968104474E+04    0.47041E-03   -0.10636E-03  5888   0.302E-02    0.163E+00
DAV: 424    -0.358968766578E+04   -0.66210E-02   -0.41115E-03  6400   0.448E-02    0.160E+00
DAV: 425    -0.358970706817E+04   -0.19402E-01   -0.47533E-02  6784   0.161E-01    0.265E+00
DAV: 426    -0.358971311212E+04   -0.60440E-02   -0.12885E-01  6528   0.280E-01    0.273E+00
DAV: 427    -0.358969932205E+04    0.13790E-01   -0.13115E-01  6400   0.204E-01    0.165E+00
DAV: 428    -0.358971359971E+04   -0.14278E-01   -0.62858E-02  6400   0.147E-01    0.251E+00
DAV: 429    -0.358971304778E+04    0.55193E-03   -0.50148E-02  6400   0.128E-01    0.213E+00
DAV: 430    -0.358971281729E+04    0.23049E-03   -0.32107E-02  6400   0.947E-02    0.209E+00
DAV: 431    -0.358970939882E+04    0.34185E-02   -0.10099E-01  6272   0.162E-01    0.451E+00
DAV: 432    -0.358969862325E+04    0.10776E-01   -0.11222E-02  5632   0.107E-01    0.331E+00
DAV: 433    -0.358970149650E+04   -0.28732E-02   -0.26297E-02  6272   0.791E-02    0.369E+00
DAV: 434    -0.358967506251E+04    0.26434E-01   -0.98555E-02  6656   0.222E-01    0.127E+00
DAV: 435    -0.358970404611E+04   -0.28984E-01   -0.54638E-02  6400   0.151E-01    0.409E+00
DAV: 436    -0.358969220652E+04    0.11840E-01   -0.85126E-02  6656   0.258E-01    0.568E+00
DAV: 437    -0.358967016983E+04    0.22037E-01   -0.17357E-02  5888   0.146E-01    0.469E+00
DAV: 438    -0.358966925497E+04    0.91486E-03   -0.20514E-02  6912   0.713E-02    0.403E+00
DAV: 439    -0.358968050225E+04   -0.11247E-01   -0.22519E-03  5632   0.496E-02    0.451E+00
DAV: 440    -0.358967798680E+04    0.25154E-02   -0.14193E-04  5632   0.133E-02    0.451E+00
DAV: 441    -0.358968121592E+04   -0.32291E-02   -0.12901E-03  6400   0.223E-02    0.496E+00
DAV: 442    -0.358966824110E+04    0.12975E-01   -0.15824E-02  6400   0.564E-02    0.418E+00
DAV: 443    -0.358967168045E+04   -0.34393E-02   -0.11628E-03  5632   0.367E-02    0.357E+00
DAV: 444    -0.358968463055E+04   -0.12950E-01   -0.18350E-01  6272   0.111E-01    0.493E+00
DAV: 445    -0.358967515738E+04    0.94732E-02   -0.22961E-02  5888   0.126E-01    0.314E+00
DAV: 446    -0.358967882616E+04   -0.36688E-02   -0.41714E-03  5760   0.517E-02    0.255E+00
DAV: 447    -0.358970788921E+04   -0.29063E-01   -0.68620E-02  6400   0.949E-02    0.620E+00
DAV: 448    -0.358967974094E+04    0.28148E-01   -0.61235E-03  5632   0.743E-02    0.552E+00
DAV: 449    -0.358967420895E+04    0.55320E-02   -0.63344E-04  6400   0.211E-02    0.496E+00
DAV: 450    -0.358966487550E+04    0.93334E-02   -0.40622E-02  6272   0.937E-02    0.174E+00
DAV: 451    -0.358968394312E+04   -0.19068E-01   -0.48193E-02  6400   0.127E-01    0.500E-01
DAV: 452    -0.358969160086E+04   -0.76577E-02   -0.34681E-02  6144   0.114E-01    0.809E-01
DAV: 453    -0.358969587340E+04   -0.42725E-02   -0.24942E-03  5632   0.661E-02    0.112E+00
DAV: 454    -0.358969492630E+04    0.94710E-03   -0.79858E-04  5760   0.269E-02    0.125E+00
DAV: 455    -0.358969500218E+04   -0.75879E-04   -0.34117E-04  6400   0.139E-02    0.144E+00
DAV: 456    -0.358969907826E+04   -0.40761E-02   -0.46391E-03  6272   0.414E-02    0.253E+00
DAV: 457    -0.358969341231E+04    0.56660E-02   -0.12458E-03  5888   0.372E-02    0.258E+00
DAV: 458    -0.358969127586E+04    0.21364E-02   -0.30633E-04  6144   0.127E-02    0.261E+00
DAV: 459    -0.358969027983E+04    0.99603E-03   -0.75235E-04  6400   0.149E-02    0.265E+00
DAV: 460    -0.358968973866E+04    0.54117E-03   -0.53324E-04  6400   0.122E-02    0.271E+00
DAV: 461    -0.358968756681E+04    0.21719E-02   -0.90775E-03  6272   0.557E-02    0.230E+00
DAV: 462    -0.358968959369E+04   -0.20269E-02   -0.27320E-03  5760   0.408E-02    0.176E+00
DAV: 463    -0.358969310852E+04   -0.35148E-02   -0.90992E-03  6400   0.563E-02    0.120E+00
DAV: 464    -0.358969667084E+04   -0.35623E-02   -0.17454E-02  6400   0.679E-02    0.706E-01
DAV: 465    -0.358969980131E+04   -0.31305E-02   -0.98622E-03  6528   0.502E-02    0.603E-01
DAV: 466    -0.358970162204E+04   -0.18207E-02   -0.67211E-03  6400   0.367E-02    0.721E-01
DAV: 467    -0.358970199442E+04   -0.37238E-03   -0.32898E-03  6400   0.296E-02    0.345E-01
DAV: 468    -0.358970340203E+04   -0.14076E-02   -0.88309E-03  6400   0.425E-02    0.153E-01
DAV: 469    -0.358970430673E+04   -0.90470E-03   -0.22980E-02  6400   0.678E-02    0.225E-01
DAV: 470    -0.358970512877E+04   -0.82204E-03   -0.30955E-02  6528   0.698E-02    0.339E-01
DAV: 471    -0.358970780991E+04   -0.26811E-02   -0.13249E-02  6656   0.517E-02    0.519E-01
DAV: 472    -0.358970886621E+04   -0.10563E-02   -0.70205E-03  6400   0.381E-02    0.460E-01
DAV: 473    -0.358970969683E+04   -0.83062E-03   -0.47780E-03  6528   0.275E-02    0.410E-01
DAV: 474    -0.358971036270E+04   -0.66587E-03   -0.14628E-03  6528   0.190E-02    0.369E-01
DAV: 475    -0.358971017312E+04    0.18958E-03   -0.11404E-03  6144   0.273E-02    0.392E-01
DAV: 476    -0.358971016551E+04    0.76123E-05   -0.10547E-03  6400   0.197E-02    0.307E-01
DAV: 477    -0.358971021025E+04   -0.44737E-04   -0.15698E-04  5760   0.974E-03    0.272E-01
DAV: 478    -0.358971040090E+04   -0.19066E-03   -0.15779E-04  6144   0.943E-03    0.269E-01
DAV: 479    -0.358971042237E+04   -0.21469E-04   -0.79903E-05  6400   0.357E-03    0.268E-01
DAV: 480    -0.358970953981E+04    0.88256E-03   -0.54438E-03  6400   0.404E-02    0.262E-01
DAV: 481    -0.358970888900E+04    0.65082E-03   -0.51547E-03  6656   0.376E-02    0.333E-01
DAV: 482    -0.358970968228E+04   -0.79328E-03   -0.11240E-03  6016   0.286E-02    0.310E-01
DAV: 483    -0.358970981912E+04   -0.13684E-03   -0.45767E-04  6400   0.106E-02    0.314E-01
DAV: 484    -0.358970985199E+04   -0.32865E-04   -0.39841E-05  5632   0.659E-03    0.313E-01
DAV: 485    -0.358970980207E+04    0.49923E-04   -0.34569E-05  6144   0.442E-03    0.315E-01
DAV: 486    -0.358970923162E+04    0.57044E-03   -0.27518E-03  6400   0.289E-02    0.327E-01
DAV: 487    -0.358970974707E+04   -0.51545E-03   -0.23739E-03  6400   0.350E-02    0.270E-01
DAV: 488    -0.358970912949E+04    0.61758E-03   -0.30203E-03  6400   0.290E-02    0.244E-01
DAV: 489    -0.358970920145E+04   -0.71956E-04   -0.12191E-03  6656   0.150E-02    0.235E-01
DAV: 490    -0.358970841110E+04    0.79035E-03   -0.50357E-03  6656   0.272E-02    0.227E-01
DAV: 491    -0.358970175199E+04    0.66591E-02   -0.67509E-02  5632   0.128E-01    0.229E-01
DAV: 492    -0.358970670464E+04   -0.49527E-02   -0.25860E-03  5120   0.603E-02    0.210E-01
DAV: 493    -0.358970649670E+04    0.20793E-03   -0.17238E-03  6528   0.208E-02    0.273E-01
DAV: 494    -0.358970601706E+04    0.47965E-03   -0.22947E-03  6400   0.233E-02    0.284E-01
DAV: 495    -0.358970503778E+04    0.97928E-03   -0.68932E-03  6400   0.339E-02    0.273E-01
DAV: 496    -0.358970354424E+04    0.14935E-02   -0.18065E-02  6400   0.560E-02    0.302E-01
DAV: 497    -0.358970385541E+04   -0.31117E-03   -0.11336E-03  5888   0.301E-02    0.306E-01
DAV: 498    -0.358970380533E+04    0.50084E-04   -0.92780E-05  6144   0.947E-03    0.307E-01
DAV: 499    -0.358970374399E+04    0.61342E-04   -0.31834E-05  6912   0.318E-03    0.307E-01
DAV: 500    -0.358970418952E+04   -0.44553E-03   -0.41668E-03  6400   0.298E-02
 -----------------------------------------------------------------------------
|                                                                             |
|           W    W    AA    RRRRR   N    N  II  N    N   GGGG   !!!           |
|           W    W   A  A   R    R  NN   N  II  NN   N  G    G  !!!           |
|           W    W  A    A  R    R  N N  N  II  N N  N  G       !!!           |
|           W WW W  AAAAAA  RRRRR   N  N N  II  N  N N  G  GGG   !            |
|           WW  WW  A    A  R   R   N   NN  II  N   NN  G    G                |
|           W    W  A    A  R    R  N    N  II  N    N   GGGG   !!!           |
|                                                                             |
|     The electronic self-consistency was not achieved in the given           |
|     number of steps (NELM). The forces and other quantities evaluated       |
|     might not be reliable so examine the results carefully. If you find     |
|     spurious results, we suggest increasing NELM, if you were close to      |
|     convergence or switching to a different ALGO or adjusting the           |
|     density mixing parameters otherwise.                                    |
|                                                                             |
 -----------------------------------------------------------------------------

 augmentation electrons   1804.87424112669     
 soft         electrons  0.000000000000000E+000
 total        electrons   1804.87424112669     
 augmentation electrons -4.291403770335234E-002
 soft         electrons  0.000000000000000E+000
 total        electrons -4.291403770335234E-002
 augmentation electrons   1897.59959528426     
 soft         electrons  0.000000000000000E+000
 total        electrons   1897.59959528426     
 augmentation electrons   1840.97656334226     
 soft         electrons  0.000000000000000E+000
 total        electrons   1840.97656334226     
 augmentation electrons   56.1871828104037     
 soft         electrons   1748.68696952369     
 total        electrons   1804.87415233409     
 augmentation electrons   19.6002026470302     
 soft         electrons   1748.68696952369     
 total        electrons   31.5410099569630     
 translations:           0           1           0
   1 F= -.36273204E+04 E0= -.36273059E+04  d E =-.362732E+04  mag=    31.5839
 curvature:   0.00 expect dE= 0.000E+00 dE for cont linesearch  0.000E+00
 trial: gam= 0.00000 g(F)=  0.199E+00 g(S)=  0.000E+00 ort = 0.000E+00 (trialstep = 0.100E+01)
 search vector abs. value=  0.199E+00
 bond charge predicted
       N       E                     dE             d eps       ncg     rms          rms(c)
DAV:   1    -0.358996753663E+04   -0.26379E+00   -0.16360E+01  6400   0.403E+00    0.835E+00
DAV:   2    -0.359514343717E+04   -0.51759E+01   -0.56102E+01  6528   0.304E+00    0.469E+01
DAV:   3    -0.359072652423E+04    0.44169E+01   -0.97486E+01  6016   0.198E+00    0.112E+01
DAV:   4    -0.359110236593E+04   -0.37584E+00   -0.66384E-01  6272   0.789E-01    0.885E+00
DAV:   5    -0.359121600003E+04   -0.11363E+00   -0.26203E-01  6784   0.657E-01    0.691E+00
DAV:   6    -0.359132409487E+04   -0.10809E+00   -0.37575E-01  6144   0.482E-01    0.662E+00
DAV:   7    -0.359145712306E+04   -0.13303E+00   -0.39335E-01  6272   0.584E-01    0.667E+00
DAV:   8    -0.359118369701E+04    0.27343E+00   -0.84263E-01  6272   0.678E-01    0.650E+00
DAV:   9    -0.359126402525E+04   -0.80328E-01   -0.43155E-02  5632   0.325E-01    0.535E+00
DAV:  10    -0.359134999601E+04   -0.85971E-01   -0.41776E-02  6272   0.312E-01    0.410E+00
DAV:  11    -0.359136203410E+04   -0.12038E-01   -0.14313E-02  5760   0.105E-01    0.392E+00
DAV:  12    -0.359139259634E+04   -0.30562E-01   -0.69026E-03  6912   0.110E-01    0.344E+00
DAV:  13    -0.359140508071E+04   -0.12484E-01   -0.35898E-03  5888   0.632E-02    0.314E+00
DAV:  14    -0.359142289871E+04   -0.17818E-01   -0.30424E-03  6144   0.842E-02    0.289E+00
DAV:  15    -0.359144782680E+04   -0.24928E-01   -0.82432E-03  6272   0.143E-01    0.222E+00
DAV:  16    -0.359146743616E+04   -0.19609E-01   -0.27838E-02  6144   0.167E-01    0.156E+00
DAV:  17    -0.359147280940E+04   -0.53732E-02   -0.43579E-03  6016   0.573E-02    0.144E+00
DAV:  18    -0.359147179649E+04    0.10129E-02   -0.23744E-04  5888   0.195E-02    0.142E+00
DAV:  19    -0.359148611080E+04   -0.14314E-01   -0.19159E-02  6400   0.939E-02    0.294E+00
DAV:  20    -0.359147822650E+04    0.78843E-02   -0.38298E-03  5632   0.607E-02    0.264E+00
DAV:  21    -0.359147544177E+04    0.27847E-02   -0.36300E-03  5888   0.358E-02    0.144E+00
DAV:  22    -0.359149127201E+04   -0.15830E-01   -0.11278E-02  5888   0.777E-02    0.275E+00
DAV:  23    -0.359149025645E+04    0.10156E-02   -0.20007E-02  6016   0.786E-02    0.329E+00
DAV:  24    -0.359148140055E+04    0.88559E-02   -0.10605E-02  5760   0.588E-02    0.136E+00
DAV:  25    -0.359148647675E+04   -0.50762E-02   -0.10368E-02  5888   0.660E-02    0.472E-01
DAV:  26    -0.359149075391E+04   -0.42772E-02   -0.16577E-02  6016   0.833E-02    0.318E-01
DAV:  27    -0.359149260715E+04   -0.18532E-02   -0.10826E-02  6528   0.574E-02    0.263E-01
DAV:  28    -0.359149378631E+04   -0.11792E-02   -0.99166E-03  6656   0.458E-02    0.273E-01
DAV:  29    -0.359149458736E+04   -0.80104E-03   -0.23896E-02  6272   0.663E-02    0.312E-01
DAV:  30    -0.359149608137E+04   -0.14940E-02   -0.15750E-02  6656   0.501E-02    0.253E-01
DAV:  31    -0.359149731057E+04   -0.12292E-02   -0.19715E-02  6400   0.474E-02    0.349E-01
DAV:  32    -0.359149867920E+04   -0.13686E-02   -0.64972E-03  6528   0.382E-02    0.194E-01
DAV:  33    -0.359149866008E+04    0.19116E-04   -0.36728E-02  6400   0.694E-02    0.312E-01
DAV:  34    -0.359149922091E+04   -0.56083E-03   -0.41300E-02  6400   0.673E-02    0.286E-01
DAV:  35    -0.359150126611E+04   -0.20452E-02   -0.30786E-02  6528   0.549E-02    0.194E-01
DAV:  36    -0.359150135120E+04   -0.85093E-04   -0.64452E-02  6400   0.808E-02    0.254E-01
DAV:  37    -0.359150592793E+04   -0.45767E-02   -0.49614E-03  5760   0.555E-02    0.229E-01
DAV:  38    -0.359150649909E+04   -0.57115E-03   -0.36698E-04  5632   0.257E-02    0.232E-01
DAV:  39    -0.359150620203E+04    0.29705E-03   -0.51494E-04  6016   0.137E-02    0.236E-01
DAV:  40    -0.359150659919E+04   -0.39716E-03   -0.16448E-03  5888   0.230E-02    0.226E-01
DAV:  41    -0.359150612940E+04    0.46979E-03   -0.29120E-02  6400   0.691E-02    0.178E-01
DAV:  42    -0.359150727976E+04   -0.11504E-02   -0.18254E-02  6656   0.396E-02    0.113E-01
DAV:  43    -0.359150901405E+04   -0.17343E-02   -0.43047E-03  6400   0.306E-02    0.103E-01
DAV:  44    -0.359150953623E+04   -0.52219E-03   -0.86378E-03  6400   0.258E-02    0.109E-01
DAV:  45    -0.359150992392E+04   -0.38768E-03   -0.16044E-02  6400   0.375E-02    0.151E-01
DAV:  46    -0.359151123723E+04   -0.13133E-02   -0.14757E-03  5888   0.280E-02    0.157E-01
DAV:  47    -0.359150873821E+04    0.24990E-02   -0.22771E-02  6272   0.713E-02    0.142E-01
DAV:  48    -0.359150232027E+04    0.64179E-02   -0.71476E-02  6272   0.939E-02    0.159E-01
DAV:  49    -0.359150736601E+04   -0.50457E-02   -0.30283E-03  5632   0.588E-02    0.144E-01
DAV:  50    -0.359150771466E+04   -0.34865E-03   -0.51843E-04  5760   0.171E-02    0.124E-01
DAV:  51    -0.359150736893E+04    0.34573E-03   -0.39950E-03  6272   0.226E-02    0.117E-01
DAV:  52    -0.359150498872E+04    0.23802E-02   -0.43629E-02  6400   0.670E-02    0.176E-01
DAV:  53    -0.359150526792E+04   -0.27920E-03   -0.15296E-02  6400   0.408E-02    0.146E-01
DAV:  54    -0.359150576486E+04   -0.49695E-03   -0.10046E-03  5760   0.273E-02    0.134E-01
DAV:  55    -0.359150526636E+04    0.49850E-03   -0.57791E-03  6400   0.228E-02    0.138E-01
DAV:  56    -0.359150509993E+04    0.16644E-03   -0.13543E-03  6400   0.128E-02    0.131E-01
DAV:  57    -0.359150508882E+04    0.11103E-04   -0.17340E-03  6400   0.190E-02    0.135E-01
DAV:  58    -0.359150500792E+04    0.80901E-04   -0.17810E-03  6400   0.166E-02    0.139E-01
DAV:  59    -0.359150490083E+04    0.10709E-03   -0.66969E-04  6400   0.802E-03    0.134E-01
DAV:  60    -0.359150485200E+04    0.48828E-04   -0.15464E-04  6400   0.464E-03    0.133E-01
DAV:  61    -0.359150468936E+04    0.16265E-03   -0.12635E-03  6272   0.146E-02    0.137E-01
DAV:  62    -0.359150450429E+04    0.18507E-03   -0.26621E-03  6400   0.150E-02    0.158E-01
DAV:  63    -0.359150440864E+04    0.95655E-04   -0.36575E-03  6400   0.148E-02    0.171E-01
DAV:  64    -0.359150490410E+04   -0.49547E-03   -0.11665E-04  5632   0.121E-02    0.171E-01
DAV:  65    -0.359150497217E+04   -0.68063E-04   -0.25533E-05  5632   0.408E-03    0.171E-01
DAV:  66    -0.359150466375E+04    0.30841E-03   -0.47937E-03  6400   0.261E-02    0.178E-01
DAV:  67    -0.359150028998E+04    0.43738E-02   -0.80651E-02  6400   0.985E-02    0.148E-01
DAV:  68    -0.359150478370E+04   -0.44937E-02   -0.36231E-03  5632   0.593E-02    0.135E-01
DAV:  69    -0.359150489829E+04   -0.11460E-03   -0.44543E-04  5888   0.951E-03    0.158E-01
DAV:  70    -0.359150481785E+04    0.80440E-04   -0.12213E-03  6400   0.104E-02    0.143E-01
DAV:  71    -0.359150292655E+04    0.18913E-02   -0.27974E-02  6272   0.557E-02    0.154E-01
DAV:  72    -0.359150462429E+04   -0.16977E-02   -0.90516E-04  5632   0.340E-02    0.162E-01
DAV:  73    -0.359150456566E+04    0.58629E-04   -0.52509E-05  5632   0.735E-03    0.163E-01
DAV:  74    -0.359150450340E+04    0.62260E-04   -0.33509E-04  6272   0.813E-03    0.150E-01
DAV:  75    -0.359150434111E+04    0.16229E-03   -0.10072E-03  6272   0.114E-02    0.145E-01
DAV:  76    -0.359150403758E+04    0.30353E-03   -0.37063E-03  6400   0.173E-02    0.136E-01
DAV:  77    -0.359150447069E+04   -0.43311E-03   -0.22182E-03  6144   0.234E-02    0.147E-01
DAV:  78    -0.359150471962E+04   -0.24893E-03   -0.70067E-04  6400   0.978E-03    0.180E-01
DAV:  79    -0.359150456389E+04    0.15573E-03   -0.75217E-03  6144   0.382E-02    0.156E-01
DAV:  80    -0.359150455599E+04    0.79070E-05   -0.90156E-04  6016   0.158E-02    0.156E-01
DAV:  81    -0.359150442531E+04    0.13068E-03   -0.20137E-04  6400   0.699E-03    0.153E-01
DAV:  82    -0.359150320315E+04    0.12222E-02   -0.20121E-02  6400   0.516E-02    0.141E-01
DAV:  83    -0.359150346306E+04   -0.25991E-03   -0.36333E-04  5632   0.247E-02    0.133E-01
DAV:  84    -0.359150330988E+04    0.15318E-03   -0.98886E-05  6272   0.542E-03    0.136E-01
DAV:  85    -0.359150300975E+04    0.30013E-03   -0.28687E-03  6272   0.234E-02    0.125E-01
DAV:  86    -0.359150158781E+04    0.14219E-02   -0.23893E-02  6400   0.621E-02    0.212E-01
DAV:  87    -0.359150086752E+04    0.72029E-03   -0.24796E-02  6144   0.702E-02    0.142E-01
DAV:  88    -0.359150250871E+04   -0.16412E-02   -0.68062E-03  5760   0.462E-02    0.133E-01
DAV:  89    -0.359150277315E+04   -0.26444E-03   -0.22767E-03  6016   0.307E-02    0.132E-01
DAV:  90    -0.359150266083E+04    0.11232E-03   -0.26786E-04  5760   0.123E-02    0.130E-01
DAV:  91    -0.359150246243E+04    0.19841E-03   -0.52314E-04  6272   0.100E-02    0.133E-01
DAV:  92    -0.359150224260E+04    0.21983E-03   -0.76620E-03  6400   0.369E-02    0.136E-01
DAV:  93    -0.359150207219E+04    0.17041E-03   -0.22192E-04  5632   0.178E-02    0.133E-01
DAV:  94    -0.359150199068E+04    0.81507E-04   -0.23684E-05  5888   0.418E-03    0.132E-01
DAV:  95    -0.359150191518E+04    0.75500E-04   -0.87238E-04  6400   0.119E-02    0.129E-01
DAV:  96    -0.359150201834E+04   -0.10315E-03   -0.13193E-03  6400   0.117E-02    0.130E-01
DAV:  97    -0.359150210024E+04   -0.81901E-04   -0.22406E-03  6272   0.170E-02    0.133E-01
DAV:  98    -0.359150250349E+04   -0.40325E-03   -0.14702E-03  5760   0.234E-02    0.129E-01
DAV:  99    -0.359150259525E+04   -0.91755E-04   -0.31690E-04  6144   0.480E-03    0.128E-01
DAV: 100    -0.359150271600E+04   -0.12076E-03   -0.67303E-05  5760   0.621E-03    0.128E-01
DAV: 101    -0.359150277814E+04   -0.62132E-04   -0.37770E-06  5120   0.169E-03    0.128E-01
DAV: 102    -0.359150265668E+04    0.12145E-03   -0.16909E-03  6144   0.172E-02    0.129E-01
DAV: 103    -0.359150296872E+04   -0.31204E-03   -0.26127E-04  5632   0.127E-02    0.129E-01
DAV: 104    -0.359150304449E+04   -0.75765E-04   -0.23397E-05  5888   0.357E-03    0.129E-01
DAV: 105    -0.359150303112E+04    0.13370E-04   -0.20482E-06  5120   0.894E-04    0.129E-01
DAV: 106    -0.359150301930E+04    0.11814E-04   -0.36040E-06  5120   0.106E-03    0.129E-01
DAV: 107    -0.359150271535E+04    0.30396E-03   -0.42911E-03  6400   0.279E-02    0.126E-01
DAV: 108    -0.359150329037E+04   -0.57502E-03   -0.38530E-04  6144   0.136E-02    0.124E-01
DAV: 109    -0.359150351658E+04   -0.22621E-03   -0.35480E-04  5888   0.114E-02    0.125E-01
DAV: 110    -0.359150341524E+04    0.10134E-03   -0.19250E-04  6016   0.745E-03    0.125E-01
DAV: 111    -0.359150326217E+04    0.15307E-03   -0.26260E-03  6400   0.189E-02    0.121E-01
DAV: 112    -0.359150140317E+04    0.18590E-02   -0.31154E-02  6272   0.741E-02    0.139E-01
DAV: 113    -0.359150438705E+04   -0.29839E-02   -0.21123E-03  5760   0.415E-02    0.129E-01
DAV: 114    -0.359150484469E+04   -0.45764E-03   -0.11066E-04  5632   0.895E-03    0.128E-01
DAV: 115    -0.359150497673E+04   -0.13204E-03   -0.19145E-05  5760   0.399E-03    0.127E-01
DAV: 116    -0.359150500732E+04   -0.30591E-04   -0.33817E-04  6400   0.658E-03    0.123E-01
DAV: 117    -0.359150500023E+04    0.70940E-05   -0.24864E-03  6400   0.174E-02    0.116E-01
DAV: 118    -0.359150540579E+04   -0.40556E-03   -0.24394E-04  6400   0.921E-03    0.115E-01
DAV: 119    -0.359150555517E+04   -0.14938E-03   -0.32136E-05  5632   0.618E-03    0.115E-01
DAV: 120    -0.359150555409E+04    0.10753E-05   -0.57137E-07  4608   0.689E-04    0.115E-01
DAV: 121    -0.359150554812E+04    0.59711E-05   -0.17828E-06  4608   0.674E-04    0.115E-01
DAV: 122    -0.359150552732E+04    0.20797E-04   -0.74868E-04  6272   0.110E-02    0.114E-01
DAV: 123    -0.359150565631E+04   -0.12898E-03   -0.88002E-04  6016   0.168E-02    0.114E-01
DAV: 124    -0.359150554850E+04    0.10781E-03   -0.13804E-04  6272   0.391E-03    0.114E-01
DAV: 125    -0.359150546851E+04    0.79990E-04   -0.71936E-04  6400   0.963E-03    0.115E-01
DAV: 126    -0.359150529849E+04    0.17001E-03   -0.73639E-04  6144   0.760E-03    0.116E-01
DAV: 127    -0.359150025171E+04    0.50468E-02   -0.88044E-02  6016   0.114E-01    0.182E-01
DAV: 128    -0.359150634994E+04   -0.60982E-02   -0.44476E-03  5248   0.671E-02    0.137E-01
DAV: 129    -0.359150621455E+04    0.13539E-03   -0.43774E-03  6144   0.307E-02    0.124E-01
DAV: 130    -0.359150607610E+04    0.13845E-03   -0.29691E-03  5888   0.320E-02    0.120E-01
DAV: 131    -0.359150559776E+04    0.47834E-03   -0.16282E-02  6400   0.451E-02    0.122E-01
DAV: 132    -0.359150633465E+04   -0.73689E-03   -0.92213E-03  6272   0.381E-02    0.167E-01
DAV: 133    -0.359150679936E+04   -0.46471E-03   -0.12993E-02  6016   0.584E-02    0.177E-01
DAV: 134    -0.359150435317E+04    0.24462E-02   -0.37845E-02  6400   0.705E-02    0.144E-01
DAV: 135    -0.359150492765E+04   -0.57448E-03   -0.12138E-02  6400   0.328E-02    0.155E-01
DAV: 136    -0.359150531023E+04   -0.38258E-03   -0.42589E-03  6400   0.222E-02    0.158E-01
DAV: 137    -0.359147258710E+04    0.32723E-01   -0.55508E-01  5760   0.260E-01    0.373E-01
DAV: 138    -0.359150319838E+04   -0.30611E-01   -0.15208E-02  5248   0.128E-01    0.320E-01
DAV: 139    -0.359150426519E+04   -0.10668E-02   -0.29369E-02  5888   0.779E-02    0.304E-01
DAV: 140    -0.359150592576E+04   -0.16606E-02   -0.31268E-03  5760   0.440E-02    0.272E-01
DAV: 141    -0.359150592132E+04    0.44374E-05   -0.33494E-04  5760   0.103E-02    0.261E-01
DAV: 142    -0.359150393292E+04    0.19884E-02   -0.40264E-02  6272   0.815E-02    0.250E-01
DAV: 143    -0.359150599719E+04   -0.20643E-02   -0.65966E-03  6016   0.396E-02    0.261E-01
DAV: 144    -0.359150660532E+04   -0.60813E-03   -0.24815E-03  6272   0.162E-02    0.265E-01
DAV: 145    -0.359150449479E+04    0.21105E-02   -0.58054E-02  6016   0.843E-02    0.300E-01
DAV: 146    -0.359150406314E+04    0.43165E-03   -0.65415E-02  6400   0.680E-02    0.356E-01
DAV: 147    -0.359150521084E+04   -0.11477E-02   -0.80908E-02  6016   0.132E-01    0.281E-01
DAV: 148    -0.359149501681E+04    0.10194E-01   -0.34195E-01  5888   0.220E-01    0.500E-01
DAV: 149    -0.359150963636E+04   -0.14620E-01   -0.15755E-02  5120   0.109E-01    0.443E-01
DAV: 150    -0.359151000986E+04   -0.37350E-03   -0.71532E-04  5888   0.204E-02    0.432E-01
DAV: 151    -0.359151000389E+04    0.59670E-05   -0.58006E-05  5760   0.715E-03    0.427E-01
DAV: 152    -0.359150679168E+04    0.32122E-02   -0.66178E-02  6144   0.103E-01    0.311E-01
DAV: 153    -0.359151017116E+04   -0.33795E-02   -0.19004E-02  5888   0.820E-02    0.334E-01
DAV: 154    -0.359151030484E+04   -0.13367E-03   -0.11192E-02  6400   0.377E-02    0.366E-01
DAV: 155    -0.359151084793E+04   -0.54309E-03   -0.40652E-04  5632   0.238E-02    0.361E-01
DAV: 156    -0.359151041929E+04    0.42864E-03   -0.84351E-03  6400   0.366E-02    0.303E-01
DAV: 157    -0.359150222364E+04    0.81956E-02   -0.12911E-01  5888   0.131E-01    0.199E-01
DAV: 158    -0.359150825770E+04   -0.60341E-02   -0.56856E-02  5504   0.135E-01    0.193E-01
DAV: 159    -0.359150909577E+04   -0.83807E-03   -0.89134E-03  5760   0.403E-02    0.172E-01
DAV: 160    -0.359150878639E+04    0.30938E-03   -0.15978E-02  6272   0.353E-02    0.189E-01
DAV: 161    -0.359150958397E+04   -0.79758E-03   -0.89718E-03  6272   0.295E-02    0.161E-01
DAV: 162    -0.359151017439E+04   -0.59042E-03   -0.11963E-02  6400   0.381E-02    0.178E-01
DAV: 163    -0.359151129568E+04   -0.11213E-02   -0.74738E-04  5504   0.276E-02    0.188E-01
DAV: 164    -0.359151144774E+04   -0.15207E-03   -0.23199E-04  6400   0.656E-03    0.202E-01
DAV: 165    -0.359151149259E+04   -0.44849E-04   -0.50144E-04  6272   0.108E-02    0.206E-01
DAV: 166    -0.359151148140E+04    0.11195E-04   -0.42867E-03  6272   0.302E-02    0.214E-01
DAV: 167    -0.359149710791E+04    0.14373E-01   -0.31508E-01  5760   0.204E-01    0.562E-01
DAV: 168    -0.359151232199E+04   -0.15214E-01   -0.61638E-02  5248   0.156E-01    0.347E-01
DAV: 169    -0.359151284338E+04   -0.52140E-03   -0.48084E-03  6400   0.253E-02    0.279E-01
DAV: 170    -0.359151273621E+04    0.10718E-03   -0.65597E-03  6272   0.210E-02    0.227E-01
DAV: 171    -0.359151299174E+04   -0.25553E-03   -0.10898E-03  6016   0.166E-02    0.203E-01
DAV: 172    -0.359151271053E+04    0.28121E-03   -0.47219E-03  6016   0.280E-02    0.128E-01
DAV: 173    -0.359151287665E+04   -0.16612E-03   -0.59866E-03  5888   0.408E-02    0.140E-01
DAV: 174    -0.359151337962E+04   -0.50297E-03   -0.41856E-04  6144   0.131E-02    0.139E-01
DAV: 175    -0.359151350051E+04   -0.12088E-03   -0.13949E-04  6400   0.563E-03    0.143E-01
DAV: 176    -0.359151359225E+04   -0.91742E-04   -0.75357E-05  6400   0.373E-03    0.142E-01
DAV: 177    -0.359151366536E+04   -0.73111E-04   -0.23303E-03  6400   0.174E-02    0.129E-01
DAV: 178    -0.359151388632E+04   -0.22096E-03   -0.68562E-05  5632   0.962E-03    0.124E-01
DAV: 179    -0.359151388664E+04   -0.31821E-06   -0.23061E-05  5760   0.383E-03    0.124E-01
DAV: 180    -0.359151386470E+04    0.21941E-04   -0.31910E-05  6016   0.230E-03    0.120E-01
DAV: 181    -0.359151342454E+04    0.44016E-03   -0.80266E-03  6016   0.369E-02    0.167E-01
DAV: 182    -0.359151237626E+04    0.10483E-02   -0.21153E-02  5888   0.666E-02    0.140E-01
DAV: 183    -0.359151379406E+04   -0.14178E-02   -0.55840E-03  5376   0.489E-02    0.111E-01
DAV: 184    -0.359151353246E+04    0.26160E-03   -0.65878E-03  6272   0.280E-02    0.138E-01
DAV: 185    -0.359151395975E+04   -0.42730E-03   -0.26771E-03  6144   0.193E-02    0.160E-01
DAV: 186    -0.359151440222E+04   -0.44247E-03   -0.20898E-04  5760   0.137E-02    0.163E-01
DAV: 187    -0.359151417846E+04    0.22377E-03   -0.15071E-03  6400   0.165E-02    0.146E-01
DAV: 188    -0.359151427939E+04   -0.10093E-03   -0.49310E-05  5632   0.980E-03    0.145E-01
DAV: 189    -0.359151424219E+04    0.37203E-04   -0.10316E-04  5888   0.465E-03    0.134E-01
DAV: 190    -0.359151423515E+04    0.70404E-05   -0.55461E-05  6144   0.420E-03    0.129E-01
DAV: 191    -0.359151409801E+04    0.13713E-03   -0.19939E-03  6400   0.188E-02    0.117E-01
DAV: 192    -0.359150983413E+04    0.42639E-02   -0.54459E-02  5760   0.892E-02    0.181E-01
DAV: 193    -0.359151309797E+04   -0.32638E-02   -0.59693E-03  5120   0.618E-02    0.962E-02
DAV: 194    -0.359151256105E+04    0.53693E-03   -0.10371E-02  5760   0.412E-02    0.108E-01
DAV: 195    -0.359151220857E+04    0.35248E-03   -0.71376E-03  6528   0.232E-02    0.950E-02
DAV: 196    -0.359151127828E+04    0.93028E-03   -0.13690E-02  6144   0.341E-02    0.939E-02
DAV: 197    -0.359151183126E+04   -0.55298E-03   -0.19095E-03  5888   0.248E-02    0.913E-02
DAV: 198    -0.359151174977E+04    0.81498E-04   -0.18480E-03  6400   0.129E-02    0.882E-02
DAV: 199    -0.359151169968E+04    0.50084E-04   -0.59936E-04  6528   0.941E-03    0.881E-02
DAV: 200    -0.359151155424E+04    0.14544E-03   -0.13470E-03  6144   0.957E-03    0.904E-02
DAV: 201    -0.359151158480E+04   -0.30557E-04   -0.13141E-04  6144   0.697E-03    0.894E-02
DAV: 202    -0.359151141781E+04    0.16698E-03   -0.17671E-03  6272   0.189E-02    0.777E-02
DAV: 203    -0.359151163754E+04   -0.21972E-03   -0.10941E-03  6272   0.162E-02    0.784E-02
DAV: 204    -0.359151157105E+04    0.66484E-04   -0.23469E-03  6144   0.228E-02    0.764E-02
DAV: 205    -0.359151163332E+04   -0.62266E-04   -0.14922E-03  6400   0.101E-02    0.747E-02
DAV: 206    -0.359151182191E+04   -0.18859E-03   -0.62960E-05  5632   0.100E-02    0.740E-02
DAV: 207    -0.359151171697E+04    0.10494E-03   -0.16559E-03  6272   0.157E-02    0.736E-02
DAV: 208    -0.359151193862E+04   -0.22165E-03   -0.18295E-04  5632   0.114E-02    0.741E-02
DAV: 209    -0.359151191249E+04    0.26131E-04   -0.28119E-04  6272   0.660E-03    0.745E-02
DAV: 210    -0.359151187950E+04    0.32983E-04   -0.76922E-04  6400   0.927E-03    0.758E-02
DAV: 211    -0.359151184847E+04    0.31032E-04   -0.75981E-05  6016   0.499E-03    0.766E-02
DAV: 212    -0.359150481786E+04    0.70306E-02   -0.10977E-01  5760   0.119E-01    0.125E-01
DAV: 213    -0.359151021620E+04   -0.53983E-02   -0.46073E-03  5376   0.540E-02    0.900E-02
DAV: 214    -0.359151038011E+04   -0.16391E-03   -0.41564E-03  6272   0.196E-02    0.934E-02
DAV: 215    -0.359151037666E+04    0.34554E-05   -0.16336E-03  6144   0.131E-02    0.932E-02
DAV: 216    -0.359151038596E+04   -0.93055E-05   -0.32880E-04  5632   0.151E-02    0.912E-02
DAV: 217    -0.359151036473E+04    0.21237E-04   -0.22480E-04  6144   0.681E-03    0.894E-02
DAV: 218    -0.359151044236E+04   -0.77633E-04   -0.78551E-04  6016   0.118E-02    0.903E-02
DAV: 219    -0.359151046085E+04   -0.18496E-04   -0.30667E-04  6144   0.535E-03    0.889E-02
DAV: 220    -0.359151042288E+04    0.37972E-04   -0.12955E-05  5888   0.387E-03    0.885E-02
DAV: 221    -0.359151040764E+04    0.15241E-04   -0.17306E-05  5120   0.135E-03    0.884E-02
DAV: 222    -0.359151027966E+04    0.12798E-03   -0.28583E-03  6272   0.183E-02    0.896E-02
DAV: 223    -0.359151040620E+04   -0.12654E-03   -0.22055E-03  6400   0.132E-02    0.890E-02
DAV: 224    -0.359151057680E+04   -0.17060E-03   -0.13463E-03  6400   0.963E-03    0.880E-02
DAV: 225    -0.359151075805E+04   -0.18125E-03   -0.68596E-05  5632   0.884E-03    0.876E-02
DAV: 226    -0.359151074550E+04    0.12547E-04   -0.34618E-04  6272   0.582E-03    0.874E-02
DAV: 227    -0.359151055900E+04    0.18651E-03   -0.34912E-03  6272   0.249E-02    0.945E-02
DAV: 228    -0.359151070003E+04   -0.14103E-03   -0.11111E-04  5888   0.911E-03    0.934E-02
DAV: 229    -0.359151057735E+04    0.12268E-03   -0.19035E-03  6272   0.140E-02    0.972E-02
DAV: 230    -0.359150779467E+04    0.27827E-02   -0.42104E-02  5760   0.700E-02    0.110E-01
DAV: 231    -0.359150933660E+04   -0.15419E-02   -0.60428E-03  6016   0.337E-02    0.966E-02
DAV: 232    -0.359141951755E+04    0.89819E-01   -0.22826E+00  5760   0.515E-01    0.509E-01
DAV: 233    -0.359149550696E+04   -0.75989E-01   -0.10929E-01  5504   0.195E-01    0.499E-01
DAV: 234    -0.359151032594E+04   -0.14819E-01   -0.95183E-03  5120   0.857E-02    0.518E-01
DAV: 235    -0.359151271863E+04   -0.23927E-02   -0.68902E-04  5120   0.348E-02    0.515E-01
DAV: 236    -0.359151279705E+04   -0.78428E-04   -0.83390E-05  6528   0.557E-03    0.521E-01
DAV: 237    -0.359151196613E+04    0.83092E-03   -0.26792E-03  6016   0.224E-02    0.543E-01
DAV: 238    -0.359151311549E+04   -0.11494E-02   -0.11056E-02  5632   0.480E-02    0.446E-01
DAV: 239    -0.359151383583E+04   -0.72035E-03   -0.42861E-03  6400   0.207E-02    0.391E-01
DAV: 240    -0.359151440276E+04   -0.56692E-03   -0.15993E-03  6272   0.157E-02    0.364E-01
DAV: 241    -0.359151426679E+04    0.13596E-03   -0.56467E-03  6016   0.331E-02    0.381E-01
DAV: 242    -0.359151493275E+04   -0.66595E-03   -0.76332E-03  5376   0.495E-02    0.283E-01
DAV: 243    -0.359151531578E+04   -0.38303E-03   -0.12935E-04  5120   0.155E-02    0.283E-01
DAV: 244    -0.359151377074E+04    0.15450E-02   -0.24157E-02  5760   0.618E-02    0.200E-01
DAV: 245    -0.359151481775E+04   -0.10470E-02   -0.31715E-03  5760   0.288E-02    0.180E-01
DAV: 246    -0.359151443852E+04    0.37922E-03   -0.68567E-03  6272   0.228E-02    0.153E-01
DAV: 247    -0.359151464603E+04   -0.20751E-03   -0.28134E-03  6144   0.198E-02    0.124E-01
DAV: 248    -0.359151460786E+04    0.38174E-04   -0.21155E-03  6400   0.188E-02    0.134E-01
DAV: 249    -0.359151441928E+04    0.18858E-03   -0.25612E-03  6144   0.231E-02    0.161E-01
DAV: 250    -0.359151471326E+04   -0.29398E-03   -0.10963E-03  5504   0.220E-02    0.152E-01
DAV: 251    -0.359151477928E+04   -0.66028E-04   -0.20284E-05  5632   0.566E-03    0.153E-01
DAV: 252    -0.359151482856E+04   -0.49278E-04   -0.59312E-04  6144   0.103E-02    0.139E-01
DAV: 253    -0.359151474439E+04    0.84169E-04   -0.11897E-03  6272   0.123E-02    0.124E-01
DAV: 254    -0.359151456286E+04    0.18153E-03   -0.35500E-03  6016   0.205E-02    0.101E-01
DAV: 255    -0.359151467829E+04   -0.11543E-03   -0.15412E-03  6016   0.114E-02    0.806E-02
DAV: 256    -0.359151484040E+04   -0.16210E-03   -0.15276E-04  5632   0.822E-03    0.800E-02
DAV: 257    -0.359151374099E+04    0.10994E-02   -0.11300E-02  5760   0.395E-02    0.119E-01
DAV: 258    -0.359151445105E+04   -0.71006E-03   -0.28315E-04  5120   0.209E-02    0.116E-01
DAV: 259    -0.359151452737E+04   -0.76329E-04   -0.99945E-05  5760   0.712E-03    0.112E-01
DAV: 260    -0.359151452225E+04    0.51233E-05   -0.12859E-05  5504   0.227E-03    0.114E-01
DAV: 261    -0.359151446931E+04    0.52943E-04   -0.82053E-04  6272   0.113E-02    0.110E-01
DAV: 262    -0.359151424951E+04    0.21979E-03   -0.21027E-03  6528   0.200E-02    0.726E-02
DAV: 263    -0.359151442674E+04   -0.17722E-03   -0.22773E-03  5760   0.228E-02    0.608E-02
DAV: 264    -0.359151462748E+04   -0.20074E-03   -0.10122E-03  6400   0.104E-02    0.587E-02
DAV: 265    -0.359151477412E+04   -0.14664E-03   -0.17046E-03  6400   0.111E-02    0.573E-02
DAV: 266    -0.359151493722E+04   -0.16311E-03   -0.21465E-03  6400   0.123E-02    0.589E-02
DAV: 267    -0.359151453802E+04    0.39921E-03   -0.14425E-02  5888   0.409E-02    0.101E-01
DAV: 268    -0.359151550866E+04   -0.97064E-03   -0.18417E-03  5120   0.362E-02    0.749E-02
DAV: 269    -0.359151551877E+04   -0.10110E-04   -0.47452E-05  6144   0.349E-03    0.711E-02
DAV: 270    -0.359151532084E+04    0.19793E-03   -0.13355E-03  6272   0.161E-02    0.821E-02
DAV: 271    -0.359151534028E+04   -0.19435E-04   -0.71297E-05  5760   0.610E-03    0.822E-02
DAV: 272    -0.359151346619E+04    0.18741E-02   -0.25886E-02  5760   0.601E-02    0.898E-02
DAV: 273    -0.359151461389E+04   -0.11477E-02   -0.80426E-04  5120   0.290E-02    0.784E-02
DAV: 274    -0.359151453389E+04    0.80005E-04   -0.67463E-04  6656   0.847E-03    0.775E-02
DAV: 275    -0.359151458749E+04   -0.53601E-04   -0.57515E-04  5632   0.146E-02    0.789E-02
DAV: 276    -0.359151462229E+04   -0.34805E-04   -0.20885E-04  5760   0.415E-03    0.787E-02
DAV: 277    -0.359151375519E+04    0.86710E-03   -0.18549E-02  5760   0.593E-02    0.108E-01
DAV: 278    -0.359151486463E+04   -0.11094E-02   -0.12692E-03  5120   0.298E-02    0.104E-01
DAV: 279    -0.359151506340E+04   -0.19878E-03   -0.18605E-04  5248   0.116E-02    0.103E-01
DAV: 280    -0.359151505378E+04    0.96228E-05   -0.37925E-05  6272   0.249E-03    0.103E-01
DAV: 281    -0.359151502480E+04    0.28979E-04   -0.19537E-04  5760   0.784E-03    0.102E-01
DAV: 282    -0.359151365609E+04    0.13687E-02   -0.15391E-02  5632   0.516E-02    0.946E-02
DAV: 283    -0.359151428843E+04   -0.63235E-03   -0.40751E-03  5760   0.332E-02    0.841E-02
DAV: 284    -0.359151460871E+04   -0.32028E-03   -0.31967E-03  5760   0.206E-02    0.793E-02
DAV: 285    -0.359151493984E+04   -0.33113E-03   -0.10984E-03  5760   0.114E-02    0.796E-02
DAV: 286    -0.359151481600E+04    0.12384E-03   -0.36171E-03  5760   0.201E-02    0.886E-02
DAV: 287    -0.359151070113E+04    0.41149E-02   -0.67047E-02  5760   0.114E-01    0.965E-02
DAV: 288    -0.359151522854E+04   -0.45274E-02   -0.53762E-03  5120   0.646E-02    0.590E-02
DAV: 289    -0.359151517668E+04    0.51857E-04   -0.57183E-03  5760   0.291E-02    0.583E-02
DAV: 290    -0.359151539838E+04   -0.22170E-03   -0.37903E-03  5760   0.213E-02    0.607E-02
DAV: 291    -0.359151567196E+04   -0.27357E-03   -0.26692E-03  6272   0.135E-02    0.615E-02
DAV: 292    -0.359151522144E+04    0.45052E-03   -0.18287E-02  5632   0.603E-02    0.571E-02
DAV: 293    -0.359151649994E+04   -0.12785E-02   -0.27235E-03  5248   0.385E-02    0.567E-02
DAV: 294    -0.359151677029E+04   -0.27035E-03   -0.45548E-04  5760   0.924E-03    0.578E-02
DAV: 295    -0.359151689426E+04   -0.12397E-03   -0.13149E-04  5632   0.727E-03    0.564E-02
DAV: 296    -0.359151693966E+04   -0.45407E-04   -0.28042E-04  6400   0.539E-03    0.537E-02
DAV: 297    -0.359151671062E+04    0.22904E-03   -0.63662E-03  5760   0.295E-02    0.496E-02
DAV: 298    -0.359151710806E+04   -0.39744E-03   -0.23375E-03  6016   0.162E-02    0.480E-02
DAV: 299    -0.359151713753E+04   -0.29467E-04   -0.43575E-03  5760   0.365E-02    0.500E-02
DAV: 300    -0.359151726566E+04   -0.12813E-03   -0.77265E-05  5248   0.101E-02    0.472E-02
DAV: 301    -0.359151552425E+04    0.17414E-02   -0.19242E-02  5760   0.537E-02    0.594E-02
DAV: 302    -0.359150778733E+04    0.77369E-02   -0.11572E-01  5760   0.112E-01    0.114E-01
DAV: 303    -0.359151359337E+04   -0.58060E-02   -0.11274E-02  5632   0.618E-02    0.678E-02
DAV: 304    -0.359151351884E+04    0.74526E-04   -0.11813E-02  6272   0.271E-02    0.693E-02
DAV: 305    -0.359151431679E+04   -0.79794E-03   -0.14938E-03  5632   0.224E-02    0.622E-02
DAV: 306    -0.359151452285E+04   -0.20606E-03   -0.68792E-04  5120   0.193E-02    0.592E-02
DAV: 307    -0.359151449790E+04    0.24946E-04   -0.23139E-04  6272   0.770E-03    0.644E-02
DAV: 308    -0.359151450828E+04   -0.10375E-04   -0.23820E-04  6272   0.674E-03    0.546E-02
DAV: 309    -0.359151447091E+04    0.37367E-04   -0.66287E-04  6272   0.112E-02    0.553E-02
DAV: 310    -0.359151443692E+04    0.33988E-04   -0.22225E-04  6272   0.560E-03    0.551E-02
DAV: 311    -0.359151442527E+04    0.11647E-04   -0.74052E-06  5632   0.363E-03    0.547E-02
DAV: 312    -0.359151412197E+04    0.30330E-03   -0.11619E-02  5760   0.405E-02    0.571E-02
DAV: 313    -0.359151477386E+04   -0.65188E-03   -0.94002E-04  5120   0.268E-02    0.539E-02
DAV: 314    -0.359151480392E+04   -0.30067E-04   -0.54179E-05  5888   0.359E-03    0.541E-02
DAV: 315    -0.359151481424E+04   -0.10314E-04   -0.14809E-06  5248   0.143E-03    0.541E-02
DAV: 316    -0.359151473239E+04    0.81842E-04   -0.54552E-04  6272   0.858E-03    0.556E-02
DAV: 317    -0.359151359841E+04    0.11340E-02   -0.13160E-02  5760   0.413E-02    0.659E-02
DAV: 318    -0.359151395904E+04   -0.36062E-03   -0.26581E-03  5888   0.241E-02    0.606E-02
DAV: 319    -0.359151397578E+04   -0.16746E-04   -0.83930E-04  5760   0.121E-02    0.621E-02
DAV: 320    -0.359151404059E+04   -0.64806E-04   -0.32630E-05  5120   0.767E-03    0.615E-02
DAV: 321    -0.359151404095E+04   -0.36396E-06   -0.37115E-06  5376   0.181E-03
 augmentation electrons   1804.89402811646     
 soft         electrons  0.000000000000000E+000
[...]
DAV:  11    -0.359620410359E+04   -0.31424E-05   -0.39659E-06  5120   0.119E-03    0.504E-03
DAV:  12    -0.359620410513E+04   -0.15360E-05   -0.79649E-06  4992   0.992E-04    0.395E-03
DAV:  13    -0.359620410621E+04   -0.10855E-05   -0.33954E-06  5120   0.491E-04    0.390E-03
DAV:  14    -0.359620410387E+04    0.23487E-05   -0.65733E-06  5632   0.125E-03    0.406E-03
DAV:  15    -0.359620409528E+04    0.85817E-05   -0.40803E-05  5888   0.210E-03    0.487E-03
DAV:  16    -0.359620404040E+04    0.54882E-04   -0.46407E-04  6272   0.672E-03    0.691E-03
DAV:  17    -0.359620390108E+04    0.13932E-03   -0.15406E-03  6272   0.109E-02    0.130E-02
DAV:  18    -0.359620387654E+04    0.24539E-04   -0.12920E-03  6144   0.745E-03    0.118E-02
DAV:  19    -0.359620399640E+04   -0.11985E-03   -0.28992E-04  6144   0.668E-03    0.734E-03
DAV:  20    -0.359620403214E+04   -0.35740E-04   -0.11615E-04  6144   0.363E-03    0.503E-03
DAV:  21    -0.359620405504E+04   -0.22902E-04   -0.10949E-05  5632   0.299E-03    0.372E-03
DAV:  22    -0.359620405712E+04   -0.20792E-05   -0.48254E-06  4992   0.925E-04    0.272E-03
DAV:  23    -0.359620405602E+04    0.10934E-05   -0.13895E-05  5248   0.990E-04    0.264E-03
DAV:  24    -0.359620405774E+04   -0.17196E-05   -0.18489E-06  5120   0.731E-04    0.241E-03
DAV:  25    -0.359620405809E+04   -0.34385E-06   -0.34114E-07  4096   0.457E-04
 augmentation electrons   1804.89156748116     
 soft         electrons  0.000000000000000E+000
 total        electrons   1804.89156748116     
 augmentation electrons -4.915755392586614E-002
 soft         electrons  0.000000000000000E+000
 total        electrons -4.915755392586614E-002
 augmentation electrons   1981.63745986197     
 soft         electrons  0.000000000000000E+000
 total        electrons   1981.63745986197     
 augmentation electrons   1925.01442791997     
 soft         electrons  0.000000000000000E+000
 total        electrons   1925.01442791997     
 augmentation electrons   56.2377879251103     
 soft         electrons   1748.65375731464     
 total        electrons   1804.89154523975     
 augmentation electrons   24.3391559359258     
 soft         electrons   1748.65375731464     
 total        electrons   39.4254581322122     
 translations:           0           1           0
 142 F= -.36337784E+04 E0= -.36337634E+04  d E =-.722628E-03  mag=    39.4746
 trial-energy change:   -0.000723  1 .order   -0.000689   -0.000880   -0.000497
 step:   0.4003(harm=  0.5458)  dis= 0.00094  next Energy= -3633.778531 (dE=-0.903E-03)
 bond charge predicted
       N       E                     dE             d eps       ncg     rms          rms(c)
DAV:   1    -0.359620417504E+04   -0.11730E-03   -0.29013E-02  5376   0.201E-01    0.101E-01
DAV:   2    -0.359620476280E+04   -0.58776E-03   -0.17599E-03  6272   0.516E-02    0.728E-01
DAV:   3    -0.359620357142E+04    0.11914E-02   -0.81709E-04  5632   0.448E-02    0.742E-02
DAV:   4    -0.359620426809E+04   -0.69667E-03   -0.25442E-04  5120   0.214E-02    0.152E-01
DAV:   5    -0.359620426103E+04    0.70613E-05   -0.68593E-05  5632   0.117E-02    0.570E-02
DAV:   6    -0.359620428955E+04   -0.28515E-04   -0.25412E-05  5632   0.703E-03    0.204E-02
DAV:   7    -0.359620429566E+04   -0.61178E-05   -0.14125E-05  5760   0.417E-03    0.657E-02
DAV:   8    -0.359620428499E+04    0.10674E-04   -0.12914E-05  5632   0.439E-03    0.220E-02
DAV:   9    -0.359620429086E+04   -0.58755E-05   -0.50061E-06  5120   0.275E-03    0.354E-02
DAV:  10    -0.359620429059E+04    0.27231E-06   -0.40518E-06  5376   0.270E-03
 augmentation electrons   1804.89193702799     
 soft         electrons  0.000000000000000E+000
 total        electrons   1804.89193702799     
 augmentation electrons -4.924466258276509E-002
 soft         electrons  0.000000000000000E+000
 total        electrons -4.924466258276509E-002
 augmentation electrons   1980.94919919689     
 soft         electrons  0.000000000000000E+000
 total        electrons   1980.94919919689     
 augmentation electrons   1924.32616725489     
 soft         electrons  0.000000000000000E+000
 total        electrons   1924.32616725489     
 augmentation electrons   56.2380636907293     
 soft         electrons   1748.65385114744     
 total        electrons   1804.89191483817     
 augmentation electrons   24.3385492608758     
 soft         electrons   1748.65385114744     
 total        electrons   39.4240957628829     
 translations:           0           1           0
 143 F= -.36337787E+04 E0= -.36337638E+04  d E =-.107658E-02  mag=    39.4733
 curvature:  -1.05 expect dE=-0.204E-02 dE for cont linesearch -0.515E-04
 ZBRENT: increasing intervall
 opt :   0.7252  next Energy= -3633.778643 (dE=-0.101E-02)
 bond charge predicted
       N       E                     dE             d eps       ncg     rms          rms(c)
DAV:   1    -0.359620508116E+04   -0.79029E-03   -0.12223E-01  5760   0.404E-01    0.117E+00
DAV:   2    -0.359623070698E+04   -0.25626E-01   -0.25773E-01  6528   0.536E-01    0.250E+00
DAV:   3    -0.359621185909E+04    0.18848E-01   -0.53380E-02  5760   0.300E-01    0.144E+00
DAV:   4    -0.359620582034E+04    0.60388E-02   -0.87678E-03  6272   0.107E-01    0.120E+00
DAV:   5    -0.359620399608E+04    0.18243E-02   -0.24318E-03  5888   0.685E-02    0.918E-01
DAV:   6    -0.359620432774E+04   -0.33166E-03   -0.80526E-04  5888   0.389E-02    0.876E-01
DAV:   7    -0.359620317423E+04    0.11535E-02   -0.31897E-04  6272   0.436E-02    0.589E-01
DAV:   8    -0.359620325754E+04   -0.83314E-04   -0.59578E-04  5760   0.510E-02    0.248E-01
DAV:   9    -0.359620424429E+04   -0.98674E-03   -0.74241E-04  5632   0.381E-02    0.176E-01
DAV:  10    -0.359620418419E+04    0.60099E-04   -0.80094E-05  5632   0.143E-02    0.238E-02
DAV:  11    -0.359620422990E+04   -0.45717E-04   -0.35244E-05  5632   0.710E-03    0.420E-02
DAV:  12    -0.359620422781E+04    0.20964E-05   -0.86229E-06  5888   0.325E-03    0.269E-02
DAV:  13    -0.359620422776E+04    0.43074E-07   -0.31599E-06  5376   0.200E-03
 augmentation electrons   1804.89292608578     
 soft         electrons  0.000000000000000E+000
 total        electrons   1804.89292608578     
 augmentation electrons -4.936066231647231E-002
 soft         electrons  0.000000000000000E+000
 total        electrons -4.936066231647231E-002
 augmentation electrons   1979.52516430199     
 soft         electrons  0.000000000000000E+000
 total        electrons   1979.52516430199     
 augmentation electrons   1922.90213235999     
 soft         electrons  0.000000000000000E+000
 total        electrons   1922.90213235999     
 augmentation electrons   56.2393076198129     
 soft         electrons   1748.65359637548     
 total        electrons   1804.89290399529     
 augmentation electrons   24.3382082696262     
 soft         electrons   1748.65359637548     
 total        electrons   39.4240103741680     
 translations:           0           1           0
 144 F= -.36337788E+04 E0= -.36337638E+04  d E =-.114569E-02  mag=    39.4734
 curvature:   1.27 expect dE= 0.696E-02 dE for cont linesearch  0.101E-03
 ZBRENT: bracketing found
 ZBRENT: interpolating
 opt :   0.5428  next Energy= -3633.778772 (dE=-0.114E-02)
 bond charge predicted
       N       E                     dE             d eps       ncg     rms          rms(c)
DAV:   1    -0.359620553950E+04   -0.13117E-02   -0.43886E-02  6016   0.229E-01    0.119E+00
DAV:   2    -0.359623131781E+04   -0.25778E-01   -0.32360E-01  6528   0.535E-01    0.264E+00
DAV:   3    -0.359621380546E+04    0.17512E-01   -0.56464E-02  5632   0.302E-01    0.186E+00
DAV:   4    -0.359620762023E+04    0.61852E-02   -0.86330E-03  5760   0.109E-01    0.137E+00
DAV:   5    -0.359620441260E+04    0.32076E-02   -0.39335E-03  5760   0.101E-01    0.926E-01
DAV:   6    -0.359620451504E+04   -0.10243E-03   -0.12317E-03  6400   0.392E-02    0.892E-01
DAV:   7    -0.359620338629E+04    0.11287E-02   -0.37029E-04  5760   0.438E-02    0.632E-01
DAV:   8    -0.359620323460E+04    0.15169E-03   -0.43449E-04  5888   0.389E-02    0.195E-01
DAV:   9    -0.359620411023E+04   -0.87563E-03   -0.44891E-04  5888   0.275E-02    0.125E-01
DAV:  10    -0.359620434445E+04   -0.23422E-03   -0.16111E-04  5632   0.170E-02    0.354E-02
DAV:  11    -0.359620435349E+04   -0.90345E-05   -0.99856E-06  6144   0.421E-03    0.410E-02
DAV:  12    -0.359620435488E+04   -0.13994E-05   -0.12641E-05  5632   0.467E-03    0.171E-02
DAV:  13    -0.359620435800E+04   -0.31154E-05   -0.89390E-06  5888   0.198E-03    0.112E-02
DAV:  14    -0.359620435857E+04   -0.57193E-06   -0.21938E-06  5504   0.114E-03
 augmentation electrons   1804.89236654170     
 soft         electrons  0.000000000000000E+000
 total        electrons   1804.89236654170     
 augmentation electrons -4.930038764722684E-002
 soft         electrons  0.000000000000000E+000
 total        electrons -4.930038764722684E-002
 augmentation electrons   1980.33143798541     
 soft         electrons  0.000000000000000E+000
 total        electrons   1980.33143798541     
 augmentation electrons   1923.70840604340     
 soft         electrons  0.000000000000000E+000
 total        electrons   1923.70840604340     
 augmentation electrons   56.2387964789595     
 soft         electrons   1748.65354791581     
 total        electrons   1804.89234439477     
 augmentation electrons   24.3389348412689     
 soft         electrons   1748.65354791581     
 total        electrons   39.4254484946691     
 translations:           0           1           0
 145 F= -.36337788E+04 E0= -.36337638E+04  d E =-.115694E-02  mag=    39.4747
 curvature:  -0.84 expect dE=-0.252E-02 dE for cont linesearch -0.161E-08
 trial: gam= 0.81822 g(F)=  0.298E-02 g(S)=  0.000E+00 ort = 0.593E-05 (trialstep = 0.299E+00)
 search vector abs. value=  0.153E-01
 bond charge predicted
       N       E                     dE             d eps       ncg     rms          rms(c)
DAV:   1    -0.359620509082E+04   -0.73282E-03   -0.80489E-02  5760   0.333E-01    0.626E-01
DAV:   2    -0.359622715709E+04   -0.22066E-01   -0.27772E-01  6144   0.263E-01    0.431E+00
DAV:   3    -0.359619811753E+04    0.29040E-01   -0.86475E-02  5888   0.241E-01    0.211E+00
DAV:   4    -0.359620087916E+04   -0.27616E-02   -0.10402E-02  5632   0.128E-01    0.782E-01
DAV:   5    -0.359620338053E+04   -0.25014E-02   -0.16091E-03  5760   0.410E-02    0.460E-01
DAV:   6    -0.359620435428E+04   -0.97375E-03   -0.42010E-04  5632   0.286E-02    0.312E-01
DAV:   7    -0.359620477385E+04   -0.41957E-03   -0.32895E-04  5632   0.249E-02    0.136E-01
DAV:   8    -0.359620490397E+04   -0.13011E-03   -0.61280E-05  6144   0.121E-02    0.748E-02
DAV:   9    -0.359620497186E+04   -0.67892E-04   -0.54149E-05  5632   0.994E-03    0.635E-02
DAV:  10    -0.359620496367E+04    0.81915E-05   -0.13493E-05  5632   0.472E-03    0.584E-02
DAV:  11    -0.359620496318E+04    0.48678E-06   -0.10993E-05  5504   0.353E-03    0.125E-02
DAV:  12    -0.359620497033E+04   -0.71512E-05   -0.47590E-06  5376   0.215E-03    0.155E-02
DAV:  13    -0.359620497033E+04    0.76107E-08   -0.28384E-06  4992   0.104E-03
 augmentation electrons   1804.89278916706     
 soft         electrons  0.000000000000000E+000
 total        electrons   1804.89278916706     
 augmentation electrons -4.938865480834206E-002
 soft         electrons  0.000000000000000E+000
 total        electrons -4.938865480834206E-002
 augmentation electrons   1979.69565974858     
 soft         electrons  0.000000000000000E+000
 total        electrons   1979.69565974858     
 augmentation electrons   1923.07262780658     
 soft         electrons  0.000000000000000E+000
 total        electrons   1923.07262780658     
 augmentation electrons   56.2390665972416     
 soft         electrons   1748.65370053921     
 total        electrons   1804.89276713645     
 augmentation electrons   24.3387803422787     
 soft         electrons   1748.65370053921     
 total        electrons   39.4253667936275     
 translations:           0           1           0
 146 F= -.36337796E+04 E0= -.36337647E+04  d E =-.847084E-03  mag=    39.4748
 trial-energy change:   -0.000847  1 .order   -0.000603   -0.000893   -0.000314
 step:   0.3407(harm=  0.4610)  dis= 0.00070  next Energy= -3633.779655 (dE=-0.870E-03)
 bond charge predicted
       N       E                     dE             d eps       ncg     rms          rms(c)
DAV:   1    -0.359620541848E+04   -0.44814E-03   -0.15831E-03  6016   0.517E-02    0.634E-01
DAV:   2    -0.359622533321E+04   -0.19915E-01   -0.27170E-01  6272   0.251E-01    0.367E+00
DAV:   3    -0.359620146227E+04    0.23871E-01   -0.63010E-02  5888   0.229E-01    0.206E+00
DAV:   4    -0.359620089789E+04    0.56438E-03   -0.84905E-03  5376   0.115E-01    0.882E-01
DAV:   5    -0.359620326056E+04   -0.23627E-02   -0.12198E-03  5760   0.332E-02    0.592E-01
DAV:   6    -0.359620404044E+04   -0.77988E-03   -0.29372E-04  5632   0.232E-02    0.291E-01
DAV:   7    -0.359620466806E+04   -0.62762E-03   -0.26262E-04  5760   0.205E-02    0.373E-02
DAV:   8    -0.359620498846E+04   -0.32041E-03   -0.81192E-05  5632   0.115E-02    0.194E-02
DAV:   9    -0.359620501170E+04   -0.23238E-04   -0.77915E-06  6144   0.364E-03    0.222E-02
DAV:  10    -0.359620501305E+04   -0.13451E-05   -0.34751E-06  5248   0.992E-04    0.249E-02
DAV:  11    -0.359620501353E+04   -0.48091E-06   -0.73550E-06  5248   0.112E-03
 augmentation electrons   1804.89285179097     
 soft         electrons  0.000000000000000E+000
 total        electrons   1804.89285179097     
 augmentation electrons -4.940957502632680E-002
 soft         electrons  0.000000000000000E+000
 total        electrons -4.940957502632680E-002
 augmentation electrons   1979.60258722853     
 soft         electrons  0.000000000000000E+000
 total        electrons   1979.60258722853     
 augmentation electrons   1922.97955528653     
 soft         electrons  0.000000000000000E+000
 total        electrons   1922.97955528653     
 augmentation electrons   56.2389205164720     
 soft         electrons   1748.65390926023     
 total        electrons   1804.89282977670     
 augmentation electrons   24.3380921455214     
 soft         electrons   1748.65390926023     
 total        electrons   39.4237222235772     
 translations:           0           1           0
 147 F= -.36337798E+04 E0= -.36337648E+04  d E =-.965268E-03  mag=    39.4731
 curvature:  -0.53 expect dE=-0.104E-02 dE for cont linesearch -0.230E-04
 ZBRENT: increasing intervall
 opt :   0.4243  next Energy= -3633.779798 (dE=-0.101E-02)
 bond charge predicted
       N       E                     dE             d eps       ncg     rms          rms(c)
DAV:   1    -0.359620664933E+04   -0.16363E-02   -0.63604E-03  6144   0.990E-02    0.141E+00
DAV:   2    -0.359625399880E+04   -0.47349E-01   -0.74911E-01  6272   0.496E-01    0.383E+00
DAV:   3    -0.359621275355E+04    0.41245E-01   -0.86692E-02  5760   0.340E-01    0.238E+00
DAV:   4    -0.359620402606E+04    0.87275E-02   -0.10969E-02  6016   0.111E-01    0.204E+00
DAV:   5    -0.359620021339E+04    0.38127E-02   -0.33489E-03  6016   0.737E-02    0.127E+00
DAV:   6    -0.359620201443E+04   -0.18010E-02   -0.23086E-03  5760   0.363E-02    0.775E-01
DAV:   7    -0.359620349440E+04   -0.14800E-02   -0.43129E-04  5760   0.233E-02    0.499E-01
DAV:   8    -0.359620424736E+04   -0.75296E-03   -0.19742E-04  5632   0.185E-02    0.156E-01
DAV:   9    -0.359620488323E+04   -0.63586E-03   -0.17888E-04  5760   0.152E-02    0.297E-02
DAV:  10    -0.359620505777E+04   -0.17454E-03   -0.46842E-05  5632   0.829E-03    0.555E-02
DAV:  11    -0.359620506089E+04   -0.31279E-05   -0.60270E-06  6144   0.232E-03    0.440E-02
DAV:  12    -0.359620506414E+04   -0.32469E-05   -0.10234E-05  5248   0.193E-03    0.607E-03
DAV:  13    -0.359620507070E+04   -0.65626E-05   -0.85491E-06  5632   0.169E-03    0.459E-03
DAV:  14    -0.359620507201E+04   -0.13032E-05   -0.22203E-06  4992   0.750E-04    0.501E-03
DAV:  15    -0.359620507248E+04   -0.46918E-06   -0.10435E-06  4224   0.346E-04
 augmentation electrons   1804.89297503025     
 soft         electrons  0.000000000000000E+000
 total        electrons   1804.89297503025     
 augmentation electrons -4.944311287896408E-002
 soft         electrons  0.000000000000000E+000
 total        electrons -4.944311287896408E-002
 augmentation electrons   1979.41364551016     
 soft         electrons  0.000000000000000E+000
 total        electrons   1979.41364551016     
 augmentation electrons   1922.79061356816     
 soft         electrons  0.000000000000000E+000
 total        electrons   1922.79061356816     
 augmentation electrons   56.2392090303021     
 soft         electrons   1748.65374401747     
 total        electrons   1804.89295304777     
 augmentation electrons   24.3387775160647     
 soft         electrons   1748.65374401747     
 total        electrons   39.4255149924910     
 translations:           0           1           0
 148 F= -.36337798E+04 E0= -.36337649E+04  d E =-.103981E-02  mag=    39.4750
 curvature:  -1.12 expect dE=-0.285E-02 dE for cont linesearch -0.679E-05
 trial: gam= 0.70140 g(F)=  0.255E-02 g(S)=  0.000E+00 ort = 0.305E-03 (trialstep = 0.324E+00)
 search vector abs. value=  0.105E-01
 bond charge predicted
       N       E                     dE             d eps       ncg     rms          rms(c)
DAV:   1    -0.359620531313E+04   -0.24113E-03   -0.63449E-02  5376   0.296E-01    0.172E-01
DAV:   2    -0.359620704862E+04   -0.17355E-02   -0.16800E-02  6400   0.803E-02    0.127E+00
DAV:   3    -0.359620381118E+04    0.32374E-02   -0.10646E-02  5120   0.702E-02    0.188E-01
DAV:   4    -0.359620527763E+04   -0.14665E-02   -0.60766E-04  5376   0.295E-02    0.201E-01
DAV:   5    -0.359620545397E+04   -0.17634E-03   -0.16357E-04  5632   0.185E-02    0.101E-01
DAV:   6    -0.359620551127E+04   -0.57302E-04   -0.63090E-05  5760   0.114E-02    0.111E-01
DAV:   7    -0.359620551289E+04   -0.16129E-05   -0.42184E-05  5632   0.773E-03    0.100E-01
DAV:   8    -0.359620549233E+04    0.20557E-04   -0.14704E-05  6016   0.526E-03    0.233E-02
DAV:   9    -0.359620551746E+04   -0.25125E-04   -0.11162E-05  5632   0.390E-03    0.725E-02
DAV:  10    -0.359620550997E+04    0.74858E-05   -0.75538E-06  5632   0.372E-03    0.363E-02
DAV:  11    -0.359620551248E+04   -0.25145E-05   -0.45567E-06  4992   0.147E-03    0.474E-03
DAV:  12    -0.359620551850E+04   -0.60149E-05   -0.95675E-06  5632   0.175E-03    0.540E-03
DAV:  13    -0.359620551966E+04   -0.11640E-05   -0.26764E-06  5120   0.577E-04    0.391E-03
DAV:  14    -0.359620551957E+04    0.91095E-07   -0.15403E-07  3968   0.502E-04
 augmentation electrons   1804.89304279244     
 soft         electrons  0.000000000000000E+000
 total        electrons   1804.89304279244     
 augmentation electrons -4.948415021257639E-002
 soft         electrons  0.000000000000000E+000
 total        electrons -4.948415021257639E-002
 augmentation electrons   1979.28322761031     
 soft         electrons  0.000000000000000E+000
 total        electrons   1979.28322761031     
 augmentation electrons   1922.66019566831     
 soft         electrons  0.000000000000000E+000
 total        electrons   1922.66019566831     
 augmentation electrons   56.2391423163017     
 soft         electrons   1748.65387860906     
 total        electrons   1804.89302092536     
 augmentation electrons   24.3388110697973     
 soft         electrons   1748.65387860906     
 total        electrons   39.4257509207659     
 translations:           0           1           0
 149 F= -.36337806E+04 E0= -.36337656E+04  d E =-.762116E-03  mag=    39.4752
 trial-energy change:   -0.000762  1 .order   -0.000670   -0.000897   -0.000443
 step:   0.4424(harm=  0.6396)  dis= 0.00076  next Energy= -3633.780672 (dE=-0.848E-03)
 reached required accuracy - stopping structural energy minimisation
 writing wavefunctions
