 ----------------------------------------------------
    OOO  PPPP  EEEEE N   N M   M PPPP
   O   O P   P E     NN  N MM MM P   P
   O   O PPPP  EEEEE N N N M M M PPPP   -- VERSION
   O   O P     E     N  NN M   M P
    OOO  P     EEEEE N   N M   M P
 ----------------------------------------------------
 running  512 mpi-ranks, with    1 threads/rank
 distrk:  each k-point on  512 cores,    1 groups
 distr:  one band on    4 cores,  128 groups
 vasp.6.3.2 27Jun22 (build Nov 12 2024 19:13:04) complex                        
  
 POSCAR found type information on POSCAR MnBrN C H 
 POSCAR found :  5 types and     635 ions
 scaLAPACK will be used
 LDA part: xc-table for Pade appr. of Perdew
 POSCAR, INCAR and KPOINTS ok, starting setup
 FFT: planning ... GRIDC
 FFT: planning ... GRID_SOFT
 FFT: planning ... GRID
 WAVECAR not read
 entering main loop
       N       E                     dE             d eps       ncg     rms          rms(c)
DAV:   1     0.980677846412E+04    0.98068E+04   -0.80280E+05  5376   0.119E+03
DAV:   2    -0.264267015932E+04   -0.12449E+05   -0.12020E+05  6400   0.259E+02
DAV:   3    -0.388186385700E+04   -0.12392E+04   -0.12243E+04  6400   0.865E+01
DAV:   4    -0.391517182672E+04   -0.33308E+02   -0.33090E+02  6656   0.161E+01
DAV:   5    -0.391621545213E+04   -0.10436E+01   -0.10423E+01  6656   0.269E+00    0.187E+02
DAV:   6    -0.485407936736E+04   -0.93786E+03   -0.48913E+03  6272   0.488E+01    0.485E+02
DAV:   7    -0.426924780877E+04    0.58483E+03   -0.95085E+02  6272   0.238E+01    0.261E+02
DAV:   8    -0.388508678364E+04    0.38416E+03   -0.17683E+03  6912   0.522E+01    0.137E+02
DAV:   9    -0.417648738486E+04   -0.29140E+03   -0.74844E+03  7680   0.361E+01    0.179E+02
DAV:  10    -0.363912066903E+04    0.53737E+03   -0.19199E+03  7552   0.303E+01    0.111E+02
DAV:  11    -0.373504754258E+04   -0.95927E+02   -0.10830E+03  7168   0.188E+01    0.114E+02
DAV:  12    -0.371759586943E+04    0.17452E+02   -0.53233E+02  7040   0.173E+01    0.109E+02
DAV:  13    -0.360948850665E+04    0.10811E+03   -0.14877E+02  6656   0.126E+01    0.914E+01
DAV:  14    -0.364412292405E+04   -0.34634E+02   -0.34145E+02  7040   0.940E+00    0.115E+02
DAV:  15    -0.360687411305E+04    0.37249E+02   -0.52641E+02  6656   0.859E+00    0.906E+01
DAV:  16    -0.358341938481E+04    0.23455E+02   -0.14853E+02  5888   0.589E+00    0.957E+01
DAV:  17    -0.358342273412E+04   -0.33493E-02   -0.13385E+02  5888   0.420E+00    0.902E+01
DAV:  18    -0.357536386144E+04    0.80589E+01   -0.10393E+02  6144   0.342E+00    0.827E+01
DAV:  19    -0.356717740323E+04    0.81865E+01   -0.42910E+01  6272   0.241E+00    0.725E+01
DAV:  20    -0.356805459651E+04   -0.87719E+00   -0.19797E+00  5632   0.105E+00    0.768E+01
DAV:  21    -0.356689498572E+04    0.11596E+01   -0.11699E+01  6144   0.726E-01    0.724E+01
DAV:  22    -0.356673795175E+04    0.15703E+00   -0.26286E+01  5760   0.103E+00    0.746E+01
DAV:  23    -0.357213297611E+04   -0.53950E+01   -0.22791E+01  5760   0.117E+00    0.872E+01
DAV:  24    -0.357056500675E+04    0.15680E+01   -0.10650E+01  5632   0.104E+00    0.796E+01
DAV:  25    -0.357092828263E+04   -0.36328E+00   -0.22934E-01  5888   0.498E-01    0.805E+01
DAV:  26    -0.357102610282E+04   -0.97820E-01   -0.13089E+00  5760   0.315E-01    0.772E+01
DAV:  27    -0.357093812602E+04    0.87977E-01   -0.21736E-01  5760   0.348E-01    0.758E+01
DAV:  28    -0.357126644395E+04   -0.32832E+00   -0.20059E-01  5760   0.244E-01    0.757E+01
DAV:  29    -0.357144535936E+04   -0.17892E+00   -0.58292E+00  5888   0.725E-01    0.771E+01
DAV:  30    -0.357026963529E+04    0.11757E+01   -0.68673E+00  5632   0.785E-01    0.786E+01
DAV:  31    -0.356898228322E+04    0.12874E+01   -0.16884E+00  5632   0.718E-01    0.728E+01
DAV:  32    -0.356789165290E+04    0.10906E+01   -0.74800E+00  5760   0.918E-01    0.716E+01
DAV:  33    -0.356758612787E+04    0.30553E+00   -0.27529E-01  5632   0.572E-01    0.708E+01
DAV:  34    -0.356763632308E+04   -0.50195E-01   -0.16840E-01  6400   0.197E-01    0.704E+01
DAV:  35    -0.356758728375E+04    0.49039E-01   -0.40490E-02  5760   0.134E-01    0.704E+01
DAV:  36    -0.356762333722E+04   -0.36053E-01   -0.24579E-01  5888   0.132E-01    0.694E+01
DAV:  37    -0.356770139148E+04   -0.78054E-01   -0.47308E-02  5760   0.167E-01    0.691E+01
DAV:  38    -0.356769363408E+04    0.77574E-02   -0.22412E-01  6016   0.237E-01    0.677E+01
DAV:  39    -0.356789199826E+04   -0.19836E+00   -0.17283E+00  5760   0.591E-01    0.641E+01
DAV:  40    -0.356862699942E+04   -0.73500E+00   -0.21584E-01  5632   0.432E-01    0.642E+01
DAV:  41    -0.356938092225E+04   -0.75392E+00   -0.95445E-01  6528   0.296E-01    0.655E+01
DAV:  42    -0.356949478716E+04   -0.11386E+00   -0.38289E-01  6016   0.413E-01    0.655E+01
DAV:  43    -0.356930640357E+04    0.18838E+00   -0.27753E-01  5760   0.240E-01    0.653E+01
DAV:  44    -0.356925773200E+04    0.48672E-01   -0.84467E-02  5888   0.142E-01    0.651E+01
DAV:  45    -0.357011910855E+04   -0.86138E+00   -0.41485E+00  6400   0.602E-01    0.633E+01
DAV:  46    -0.357020155600E+04   -0.82447E-01   -0.27774E+00  5760   0.687E-01    0.663E+01
DAV:  47    -0.357084547821E+04   -0.64392E+00   -0.38823E+00  5760   0.520E-01    0.720E+01
DAV:  48    -0.357169557110E+04   -0.85009E+00   -0.65378E-01  5376   0.476E-01    0.750E+01
DAV:  49    -0.357328899314E+04   -0.15934E+01   -0.14371E+00  5760   0.424E-01    0.734E+01
DAV:  50    -0.357215436553E+04    0.11346E+01   -0.74516E+00  5888   0.504E-01    0.734E+01
DAV:  51    -0.357986362778E+04   -0.77093E+01   -0.14364E+01  6656   0.270E+00    0.876E+01
DAV:  52    -0.357138331993E+04    0.84803E+01   -0.18873E+01  6016   0.188E+00    0.747E+01
DAV:  53    -0.357301107072E+04   -0.16278E+01   -0.39729E+00  6016   0.123E+00    0.701E+01
DAV:  54    -0.357422730186E+04   -0.12162E+01   -0.29270E+00  5632   0.677E-01    0.668E+01
DAV:  55    -0.357663031364E+04   -0.24030E+01   -0.94466E-01  5888   0.651E-01    0.658E+01
DAV:  56    -0.359604381274E+04   -0.19413E+02   -0.22142E+02  6656   0.591E+00    0.800E+01
DAV:  57    -0.356669435723E+04    0.29349E+02   -0.63798E+01  5888   0.610E+00    0.475E+01
DAV:  58    -0.356570906959E+04    0.98529E+00   -0.20707E+01  5632   0.281E+00    0.372E+01
DAV:  59    -0.356688909681E+04   -0.11800E+01   -0.48897E+00  5760   0.182E+00    0.357E+01
DAV:  60    -0.356434496705E+04    0.25441E+01   -0.57199E+00  5888   0.167E+00    0.369E+01
DAV:  61    -0.356332800456E+04    0.10170E+01   -0.91252E+00  5888   0.260E+00    0.353E+01
DAV:  62    -0.356425180864E+04   -0.92380E+00   -0.66716E+00  6144   0.148E+00    0.351E+01
DAV:  63    -0.356535132706E+04   -0.10995E+01   -0.78480E-01  5888   0.767E-01    0.346E+01
DAV:  64    -0.356529378603E+04    0.57541E-01   -0.50267E-01  6400   0.605E-01    0.346E+01
DAV:  65    -0.356478714839E+04    0.50664E+00   -0.26640E-01  6400   0.425E-01    0.344E+01
DAV:  66    -0.357066366297E+04   -0.58765E+01   -0.26650E+01  6016   0.247E+00    0.474E+01
DAV:  67    -0.356864255557E+04    0.20211E+01   -0.32079E+01  5760   0.219E+00    0.381E+01
DAV:  68    -0.356657102563E+04    0.20715E+01   -0.28853E+00  5760   0.155E+00    0.339E+01
DAV:  69    -0.356598608021E+04    0.58495E+00   -0.30517E+00  6656   0.101E+00    0.314E+01
DAV:  70    -0.356623266997E+04   -0.24659E+00   -0.35566E-01  5888   0.561E-01    0.308E+01
DAV:  71    -0.356772292431E+04   -0.14903E+01   -0.32405E+00  6144   0.155E+00    0.287E+01
DAV:  72    -0.356779602578E+04   -0.73101E-01   -0.17043E+00  6144   0.938E-01    0.293E+01
DAV:  73    -0.356900011717E+04   -0.12041E+01   -0.40526E+00  6144   0.146E+00    0.335E+01
DAV:  74    -0.356808676797E+04    0.91335E+00   -0.30688E+00  5760   0.867E-01    0.299E+01
DAV:  75    -0.356810385426E+04   -0.17086E-01   -0.22074E+00  6272   0.951E-01    0.294E+01
DAV:  76    -0.356719916838E+04    0.90469E+00   -0.51148E+00  5888   0.163E+00    0.384E+01
DAV:  77    -0.356627959341E+04    0.91957E+00   -0.44486E+00  6144   0.962E-01    0.320E+01
DAV:  78    -0.356667098315E+04   -0.39139E+00   -0.15704E-01  5888   0.461E-01    0.318E+01
DAV:  79    -0.356701945245E+04   -0.34847E+00   -0.29590E+00  6528   0.787E-01    0.343E+01
DAV:  80    -0.356687310337E+04    0.14635E+00   -0.22403E-01  5888   0.536E-01    0.345E+01
DAV:  81    -0.357333604627E+04   -0.64629E+01   -0.23239E+01  6016   0.240E+00    0.347E+01
DAV:  82    -0.357363064332E+04   -0.29460E+00   -0.24574E+00  5888   0.141E+00    0.351E+01
DAV:  83    -0.357388085761E+04   -0.25021E+00   -0.49843E-01  6272   0.686E-01    0.343E+01
DAV:  84    -0.357415482111E+04   -0.27396E+00   -0.10698E+01  6272   0.122E+00    0.312E+01
DAV:  85    -0.357445172682E+04   -0.29691E+00   -0.11119E+00  5632   0.861E-01    0.267E+01
DAV:  86    -0.357650622322E+04   -0.20545E+01   -0.88520E+00  6016   0.122E+00    0.327E+01
DAV:  87    -0.357659015603E+04   -0.83933E-01   -0.22685E+00  5760   0.716E-01    0.305E+01
DAV:  88    -0.357690011804E+04   -0.30996E+00   -0.17139E-01  5888   0.440E-01    0.301E+01
DAV:  89    -0.357972637757E+04   -0.28263E+01   -0.50665E+00  6656   0.136E+00    0.375E+01
DAV:  90    -0.357978720405E+04   -0.60826E-01   -0.31761E-01  5632   0.527E-01    0.372E+01
DAV:  91    -0.357985058504E+04   -0.63381E-01   -0.23143E+00  6016   0.150E+00    0.355E+01
DAV:  92    -0.358162495381E+04   -0.17744E+01   -0.21632E+00  6016   0.106E+00    0.327E+01
DAV:  93    -0.358263814784E+04   -0.10132E+01   -0.65871E+00  6272   0.116E+00    0.389E+01
DAV:  94    -0.358243927735E+04    0.19887E+00   -0.74070E+00  6016   0.899E-01    0.323E+01
DAV:  95    -0.358238609436E+04    0.53183E-01   -0.24391E-01  5632   0.475E-01    0.325E+01
DAV:  96    -0.358841545066E+04   -0.60294E+01   -0.12086E+02  5888   0.442E+00    0.545E+01
DAV:  97    -0.358096835593E+04    0.74471E+01   -0.53117E+01  6016   0.251E+00    0.303E+01
DAV:  98    -0.358353759410E+04   -0.25692E+01   -0.91070E+00  6016   0.138E+00    0.280E+01
DAV:  99    -0.358473545685E+04   -0.11979E+01   -0.49334E-01  5760   0.801E-01    0.275E+01
DAV: 100    -0.358527724696E+04   -0.54179E+00   -0.52828E-01  6144   0.673E-01    0.269E+01
DAV: 101    -0.358408746108E+04    0.11898E+01   -0.43312E+00  6272   0.164E+00    0.251E+01
DAV: 102    -0.358744345279E+04   -0.33560E+01   -0.10698E+01  6400   0.126E+00    0.286E+01
DAV: 103    -0.358758644543E+04   -0.14299E+00   -0.23400E+00  6144   0.741E-01    0.247E+01
DAV: 104    -0.358812239515E+04   -0.53595E+00   -0.78323E-01  6400   0.558E-01    0.235E+01
DAV: 105    -0.358904616731E+04   -0.92377E+00   -0.19222E+00  6144   0.996E-01    0.230E+01
DAV: 106    -0.358891358028E+04    0.13259E+00   -0.22437E+00  6016   0.131E+00    0.211E+01
DAV: 107    -0.358944992799E+04   -0.53635E+00   -0.16872E+00  5760   0.895E-01    0.203E+01
DAV: 108    -0.358981937963E+04   -0.36945E+00   -0.28039E-01  6144   0.579E-01    0.193E+01
DAV: 109    -0.359017668140E+04   -0.35730E+00   -0.57599E-01  6144   0.850E-01    0.193E+01
DAV: 110    -0.359070722083E+04   -0.53054E+00   -0.33360E-01  6144   0.717E-01    0.179E+01
DAV: 111    -0.359119692476E+04   -0.48970E+00   -0.45467E+00  6016   0.178E+00    0.218E+01
DAV: 112    -0.359145565293E+04   -0.25873E+00   -0.38607E-01  6272   0.664E-01    0.223E+01
DAV: 113    -0.359158180206E+04   -0.12615E+00   -0.41263E-01  6272   0.377E-01    0.209E+01
DAV: 114    -0.359179859776E+04   -0.21680E+00   -0.74014E-02  5760   0.275E-01    0.206E+01
DAV: 115    -0.359272944500E+04   -0.93085E+00   -0.13146E+00  5888   0.893E-01    0.183E+01
DAV: 116    -0.359359204278E+04   -0.86260E+00   -0.28383E+00  6528   0.129E+00    0.214E+01
DAV: 117    -0.359364676254E+04   -0.54720E-01   -0.20054E-01  5632   0.386E-01    0.212E+01
DAV: 118    -0.359417414374E+04   -0.52738E+00   -0.22504E-01  6144   0.541E-01    0.195E+01
DAV: 119    -0.359547667554E+04   -0.13025E+01   -0.44211E+00  6144   0.106E+00    0.179E+01
DAV: 120    -0.359600577522E+04   -0.52910E+00   -0.39041E-01  5888   0.594E-01    0.170E+01
DAV: 121    -0.359618460284E+04   -0.17883E+00   -0.25069E-01  6144   0.769E-01    0.169E+01
DAV: 122    -0.359649371555E+04   -0.30911E+00   -0.13805E-01  6784   0.497E-01    0.164E+01
DAV: 123    -0.359688388927E+04   -0.39017E+00   -0.12202E+00  6400   0.743E-01    0.193E+01
DAV: 124    -0.359693412580E+04   -0.50237E-01   -0.13546E-01  5632   0.318E-01    0.199E+01
DAV: 125    -0.359674168793E+04    0.19244E+00   -0.12556E-01  6400   0.443E-01    0.189E+01
DAV: 126    -0.359661676475E+04    0.12492E+00   -0.44192E+00  6656   0.204E+00    0.219E+01
DAV: 127    -0.359668460471E+04   -0.67840E-01   -0.22255E+00  5888   0.837E-01    0.177E+01
DAV: 128    -0.359715606126E+04   -0.47146E+00   -0.68590E-01  6144   0.791E-01    0.168E+01
DAV: 129    -0.359752888709E+04   -0.37283E+00   -0.22099E+00  6528   0.594E-01    0.189E+01
DAV: 130    -0.359752261508E+04    0.62720E-02   -0.11346E-01  5888   0.387E-01    0.184E+01
DAV: 131    -0.359786018244E+04   -0.33757E+00   -0.94114E-01  5888   0.131E+00    0.173E+01
DAV: 132    -0.359841507595E+04   -0.55489E+00   -0.41861E-01  6272   0.708E-01    0.166E+01
DAV: 133    -0.359902220321E+04   -0.60713E+00   -0.20336E+00  6016   0.733E-01    0.198E+01
DAV: 134    -0.359910509381E+04   -0.82891E-01   -0.10694E-01  5632   0.290E-01    0.197E+01
DAV: 135    -0.359910250066E+04    0.25931E-02   -0.43040E-02  5888   0.214E-01    0.194E+01
DAV: 136    -0.360185533242E+04   -0.27528E+01   -0.13340E+01  6272   0.279E+00    0.364E+01
DAV: 137    -0.359946964961E+04    0.23857E+01   -0.17867E+01  6144   0.135E+00    0.197E+01
DAV: 138    -0.360008834335E+04   -0.61869E+00   -0.12728E+00  6016   0.944E-01    0.199E+01
DAV: 139    -0.359983201507E+04    0.25633E+00   -0.39704E-01  6016   0.730E-01    0.200E+01
DAV: 140    -0.359990912046E+04   -0.77105E-01   -0.78937E-01  6016   0.470E-01    0.199E+01
DAV: 141    -0.360082812290E+04   -0.91900E+00   -0.82871E+00  6016   0.126E+00    0.220E+01
DAV: 142    -0.360078766346E+04    0.40459E-01   -0.20300E-01  5760   0.529E-01    0.220E+01
DAV: 143    -0.360081094586E+04   -0.23282E-01   -0.22955E-02  5632   0.148E-01    0.221E+01
DAV: 144    -0.360075719109E+04    0.53755E-01   -0.78818E-03  6528   0.459E-02    0.220E+01
DAV: 145    -0.360080482779E+04   -0.47637E-01   -0.39967E-02  6016   0.874E-02    0.221E+01
DAV: 146    -0.360039717118E+04    0.40766E+00   -0.21954E+00  6400   0.116E+00    0.186E+01
DAV: 147    -0.360061652047E+04   -0.21935E+00   -0.40896E-01  5888   0.589E-01    0.184E+01
DAV: 148    -0.360097214857E+04   -0.35563E+00   -0.31830E+00  6400   0.571E-01    0.226E+01
DAV: 149    -0.360040581388E+04    0.56633E+00   -0.18559E-01  6016   0.459E-01    0.224E+01
DAV: 150    -0.360003467452E+04    0.37114E+00   -0.91335E-02  6400   0.223E-01    0.207E+01
DAV: 151    -0.359962695943E+04    0.40772E+00   -0.15779E+00  6144   0.817E-01    0.209E+01
DAV: 152    -0.359917925498E+04    0.44770E+00   -0.30418E-01  5760   0.445E-01    0.187E+01
DAV: 153    -0.359914121681E+04    0.38038E-01   -0.58013E-02  5888   0.196E-01    0.195E+01
DAV: 154    -0.360016908347E+04   -0.10279E+01   -0.44858E-01  6272   0.730E-01    0.224E+01
DAV: 155    -0.360047534524E+04   -0.30626E+00   -0.17885E-01  6272   0.464E-01    0.206E+01
DAV: 156    -0.359828766492E+04    0.21877E+01   -0.21079E+01  6272   0.242E+00    0.173E+01
DAV: 157    -0.359949634760E+04   -0.12087E+01   -0.93939E-01  6528   0.987E-01    0.164E+01
DAV: 158    -0.360026106031E+04   -0.76471E+00   -0.37808E+00  6784   0.996E-01    0.205E+01
DAV: 159    -0.360031524431E+04   -0.54184E-01   -0.22825E-01  5888   0.499E-01    0.194E+01
DAV: 160    -0.360058274642E+04   -0.26750E+00   -0.23095E-01  6528   0.280E-01    0.194E+01
DAV: 161    -0.360095396203E+04   -0.37122E+00   -0.85737E-01  6784   0.612E-01    0.198E+01
DAV: 162    -0.360105825183E+04   -0.10429E+00   -0.89365E-02  6144   0.235E-01    0.198E+01
DAV: 163    -0.360116338981E+04   -0.10514E+00   -0.56441E-01  6400   0.684E-01    0.193E+01
DAV: 164    -0.360130953981E+04   -0.14615E+00   -0.55333E+00  6528   0.808E-01    0.259E+01
DAV: 165    -0.359987697203E+04    0.14326E+01   -0.25264E+00  5760   0.713E-01    0.178E+01
DAV: 166    -0.360037801501E+04   -0.50104E+00   -0.67933E-01  6144   0.584E-01    0.209E+01
DAV: 167    -0.360047889291E+04   -0.10088E+00   -0.10177E-01  5632   0.299E-01    0.215E+01
DAV: 168    -0.360041011283E+04    0.68780E-01   -0.76089E-01  6144   0.287E-01    0.204E+01
DAV: 169    -0.360054302584E+04   -0.13291E+00   -0.17648E-01  5888   0.176E-01    0.201E+01
DAV: 170    -0.360066182677E+04   -0.11880E+00   -0.81296E-02  6144   0.158E-01    0.223E+01
DAV: 171    -0.360264482079E+04   -0.19830E+01   -0.99158E+00  6784   0.124E+00    0.318E+01
DAV: 172    -0.360240270531E+04    0.24212E+00   -0.15227E-01  5760   0.339E-01    0.315E+01
DAV: 173    -0.360212359910E+04    0.27911E+00   -0.27658E-02  6272   0.119E-01    0.313E+01
DAV: 174    -0.360060391503E+04    0.15197E+01   -0.29188E+00  6528   0.658E-01    0.255E+01
DAV: 175    -0.360080781193E+04   -0.20390E+00   -0.10853E-01  5632   0.267E-01    0.258E+01
DAV: 176    -0.359943291219E+04    0.13749E+01   -0.75965E+00  6528   0.118E+00    0.166E+01
DAV: 177    -0.359921018686E+04    0.22273E+00   -0.34923E-01  6144   0.647E-01    0.163E+01
DAV: 178    -0.359841564087E+04    0.79455E+00   -0.22555E+00  6144   0.602E-01    0.143E+01
DAV: 179    -0.359836131613E+04    0.54325E-01   -0.19439E-01  6144   0.482E-01    0.147E+01
DAV: 180    -0.359771120926E+04    0.65011E+00   -0.15618E-01  6144   0.293E-01    0.148E+01
DAV: 181    -0.359676210406E+04    0.94911E+00   -0.10139E+00  6272   0.802E-01    0.177E+01
DAV: 182    -0.359824387592E+04   -0.14818E+01   -0.19541E+00  6272   0.956E-01    0.174E+01
DAV: 183    -0.359922149509E+04   -0.97762E+00   -0.83049E-01  6400   0.583E-01    0.206E+01
DAV: 184    -0.359918504468E+04    0.36450E-01   -0.49892E-02  5760   0.208E-01    0.207E+01
DAV: 185    -0.359916734443E+04    0.17700E-01   -0.18989E-03  6400   0.394E-02    0.208E+01
DAV: 186    -0.360142926613E+04   -0.22619E+01   -0.10958E+01  6016   0.177E+00    0.221E+01
DAV: 187    -0.360000511104E+04    0.14242E+01   -0.80001E+00  6144   0.141E+00    0.164E+01
DAV: 188    -0.359965469222E+04    0.35042E+00   -0.10019E+00  5760   0.549E-01    0.120E+01
DAV: 189    -0.359960473920E+04    0.49953E-01   -0.30495E-01  6272   0.301E-01    0.114E+01
DAV: 190    -0.359933992953E+04    0.26481E+00   -0.27833E-01  6656   0.404E-01    0.107E+01
DAV: 191    -0.359945201547E+04   -0.11209E+00   -0.13680E+00  6656   0.539E-01    0.120E+01
DAV: 192    -0.359970185055E+04   -0.24984E+00   -0.10258E+00  6528   0.691E-01    0.104E+01
DAV: 193    -0.359987042629E+04   -0.16858E+00   -0.13852E-01  6272   0.411E-01    0.989E+00
DAV: 194    -0.359993741376E+04   -0.66987E-01   -0.65533E-01  6528   0.546E-01    0.909E+00
DAV: 195    -0.359998996568E+04   -0.52552E-01   -0.38568E-01  6016   0.367E-01    0.121E+01
DAV: 196    -0.359979741005E+04    0.19256E+00   -0.59188E+00  6144   0.164E+00    0.163E+01
DAV: 197    -0.359982707290E+04   -0.29663E-01   -0.28314E-01  6400   0.474E-01    0.160E+01
DAV: 198    -0.359977677346E+04    0.50299E-01   -0.13502E-02  6144   0.103E-01    0.160E+01
DAV: 199    -0.359981251349E+04   -0.35740E-01   -0.53178E-03  6144   0.516E-02    0.160E+01
DAV: 200    -0.359995555227E+04   -0.14304E+00   -0.13708E-01  6656   0.191E-01    0.159E+01
DAV: 201    -0.359997170693E+04   -0.16155E-01   -0.40164E-01  6272   0.583E-01    0.161E+01
DAV: 202    -0.359994525580E+04    0.26451E-01   -0.42416E-02  5632   0.171E-01    0.158E+01
DAV: 203    -0.359995369732E+04   -0.84415E-02   -0.11072E-01  6144   0.259E-01    0.147E+01
DAV: 204    -0.360010762885E+04   -0.15393E+00   -0.32288E-01  6272   0.319E-01    0.155E+01
DAV: 205    -0.360009357719E+04    0.14052E-01   -0.22300E-02  5760   0.111E-01    0.158E+01
DAV: 206    -0.360005005771E+04    0.43519E-01   -0.35030E-01  6528   0.345E-01    0.166E+01
DAV: 207    -0.360001427335E+04    0.35784E-01   -0.88947E-02  6272   0.235E-01    0.173E+01
DAV: 208    -0.359996471364E+04    0.49560E-01   -0.21857E-02  6528   0.129E-01    0.166E+01
DAV: 209    -0.359992550277E+04    0.39211E-01   -0.30552E-02  6144   0.146E-01    0.162E+01
DAV: 210    -0.359993056547E+04   -0.50627E-02   -0.67780E-02  6272   0.190E-01    0.157E+01
DAV: 211    -0.359955273841E+04    0.37783E+00   -0.48652E+00  6272   0.102E+00    0.113E+01
DAV: 212    -0.359961945004E+04   -0.66712E-01   -0.39596E-01  6272   0.850E-01    0.108E+01
DAV: 213    -0.359968753003E+04   -0.68080E-01   -0.26227E-01  6400   0.668E-01    0.104E+01
DAV: 214    -0.359985070250E+04   -0.16317E+00   -0.36731E-01  6656   0.604E-01    0.104E+01
DAV: 215    -0.360004753785E+04   -0.19684E+00   -0.85099E-01  6272   0.510E-01    0.860E+00
DAV: 216    -0.360027871292E+04   -0.23118E+00   -0.15574E+00  6656   0.807E-01    0.805E+00
DAV: 217    -0.360036465973E+04   -0.85947E-01   -0.88443E-02  5632   0.244E-01    0.879E+00
DAV: 218    -0.360038773651E+04   -0.23077E-01   -0.31575E-02  6016   0.193E-01    0.870E+00
DAV: 219    -0.360040322838E+04   -0.15492E-01   -0.82306E-03  6528   0.813E-02    0.962E+00
DAV: 220    -0.360042430671E+04   -0.21078E-01   -0.60272E-02  6656   0.185E-01    0.801E+00
DAV: 221    -0.360096129431E+04   -0.53699E+00   -0.37960E+00  6656   0.114E+00    0.142E+01
DAV: 222    -0.360119696183E+04   -0.23567E+00   -0.18481E-01  6144   0.348E-01    0.191E+01
DAV: 223    -0.360110814063E+04    0.88821E-01   -0.27624E-02  6016   0.165E-01    0.183E+01
DAV: 224    -0.360105153845E+04    0.56602E-01   -0.20739E-02  6272   0.152E-01    0.178E+01
DAV: 225    -0.360114404975E+04   -0.92511E-01   -0.26393E-02  6400   0.148E-01    0.190E+01
DAV: 226    -0.360127755906E+04   -0.13351E+00   -0.21386E-01  6656   0.573E-01    0.156E+01
DAV: 227    -0.360183225224E+04   -0.55469E+00   -0.17474E-01  6400   0.670E-01    0.223E+01
DAV: 228    -0.360196349740E+04   -0.13125E+00   -0.16967E-01  6528   0.512E-01    0.224E+01
DAV: 229    -0.360201165177E+04   -0.48154E-01   -0.39807E-02  6272   0.161E-01    0.219E+01
DAV: 230    -0.360214961351E+04   -0.13796E+00   -0.24781E-02  6528   0.186E-01    0.227E+01
DAV: 231    -0.360062911306E+04    0.15205E+01   -0.16747E+00  6656   0.175E+00    0.120E+01
DAV: 232    -0.360099484506E+04   -0.36573E+00   -0.68450E-01  6272   0.494E-01    0.113E+01
DAV: 233    -0.360090184814E+04    0.92997E-01   -0.18564E+00  7040   0.809E-01    0.972E+00
DAV: 234    -0.360058032593E+04    0.32152E+00   -0.37760E-01  6528   0.837E-01    0.873E+00
DAV: 235    -0.360035352066E+04    0.22681E+00   -0.22037E-01  6784   0.511E-01    0.853E+00
DAV: 236    -0.360072896918E+04   -0.37545E+00   -0.47497E+00  6400   0.939E-01    0.107E+01
DAV: 237    -0.360095629366E+04   -0.22732E+00   -0.20934E-01  6144   0.422E-01    0.979E+00
DAV: 238    -0.360109618620E+04   -0.13989E+00   -0.61144E-02  6400   0.242E-01    0.943E+00
DAV: 239    -0.360106718908E+04    0.28997E-01   -0.10241E-02  5888   0.864E-02    0.947E+00
DAV: 240    -0.360108067731E+04   -0.13488E-01   -0.10575E-03  6656   0.338E-02    0.946E+00
DAV: 241    -0.360050763455E+04    0.57304E+00   -0.79901E-01  6784   0.932E-01    0.835E+00
DAV: 242    -0.360067250395E+04   -0.16487E+00   -0.37508E-01  6144   0.452E-01    0.796E+00
DAV: 243    -0.360068423716E+04   -0.11733E-01   -0.71745E-02  6528   0.177E-01    0.788E+00
DAV: 244    -0.360064284854E+04    0.41389E-01   -0.36709E-02  6272   0.112E-01    0.812E+00
DAV: 245    -0.360076756441E+04   -0.12472E+00   -0.27247E-01  6016   0.382E-01    0.724E+00
DAV: 246    -0.360086662072E+04   -0.99056E-01   -0.85115E-01  6656   0.104E+00    0.693E+00
DAV: 247    -0.360082046616E+04    0.46155E-01   -0.26736E-01  6272   0.402E-01    0.103E+01
DAV: 248    -0.360088399054E+04   -0.63524E-01   -0.38302E-01  5888   0.311E-01    0.142E+01
DAV: 249    -0.360083507236E+04    0.48918E-01   -0.20183E-02  5760   0.142E-01    0.147E+01
DAV: 250    -0.360087034431E+04   -0.35272E-01   -0.12406E-02  6528   0.103E-01    0.160E+01
DAV: 251    -0.360083258913E+04    0.37755E-01   -0.14375E+00  6528   0.177E+00    0.118E+01
DAV: 252    -0.360070997874E+04    0.12261E+00   -0.56406E-01  5888   0.385E-01    0.112E+01
DAV: 253    -0.360070261182E+04    0.73669E-02   -0.25944E-02  5888   0.145E-01    0.112E+01
DAV: 254    -0.360066339202E+04    0.39220E-01   -0.48981E-02  6528   0.153E-01    0.954E+00
DAV: 255    -0.360074752395E+04   -0.84132E-01   -0.32655E-01  6656   0.235E-01    0.934E+00
DAV: 256    -0.360093817069E+04   -0.19065E+00   -0.10400E-01  5888   0.246E-01    0.145E+01
DAV: 257    -0.360088544506E+04    0.52726E-01   -0.27377E-02  5632   0.158E-01    0.147E+01
DAV: 258    -0.360086656946E+04    0.18876E-01   -0.18237E-03  6144   0.468E-02    0.145E+01
DAV: 259    -0.360086440985E+04    0.21596E-02   -0.29175E-04  6656   0.159E-02    0.144E+01
DAV: 260    -0.360083590180E+04    0.28508E-01   -0.31342E-02  6528   0.183E-01    0.151E+01
DAV: 261    -0.360090080909E+04   -0.64907E-01   -0.23220E-01  5632   0.331E-01    0.158E+01
DAV: 262    -0.360088251392E+04    0.18295E-01   -0.20306E-02  6400   0.135E-01    0.164E+01
DAV: 263    -0.360087192676E+04    0.10587E-01   -0.25167E-02  6016   0.219E-01    0.171E+01
DAV: 264    -0.360082333909E+04    0.48588E-01   -0.15154E-01  6272   0.421E-01    0.175E+01
DAV: 265    -0.360079857966E+04    0.24759E-01   -0.39421E-02  5888   0.169E-01    0.175E+01
DAV: 266    -0.360085187088E+04   -0.53291E-01   -0.38942E-01  6144   0.364E-01    0.167E+01
DAV: 267    -0.360074681491E+04    0.10506E+00   -0.27393E-01  6144   0.449E-01    0.174E+01
DAV: 268    -0.360074470740E+04    0.21075E-02   -0.16248E-02  5888   0.854E-02    0.174E+01
DAV: 269    -0.360074598674E+04   -0.12793E-02   -0.35135E-04  6400   0.154E-02    0.174E+01
DAV: 270    -0.360072647517E+04    0.19512E-01   -0.10300E-02  6016   0.756E-02    0.174E+01
DAV: 271    -0.360105667779E+04   -0.33020E+00   -0.16786E+00  6528   0.104E+00    0.201E+01
DAV: 272    -0.360079434551E+04    0.26233E+00   -0.25651E+00  6272   0.186E+00    0.109E+01
DAV: 273    -0.360101318732E+04   -0.21884E+00   -0.30881E-01  6144   0.370E-01    0.141E+01
DAV: 274    -0.360106104653E+04   -0.47859E-01   -0.10487E-01  6016   0.240E-01    0.150E+01
DAV: 275    -0.360098127688E+04    0.79770E-01   -0.16813E-01  5888   0.253E-01    0.144E+01
DAV: 276    -0.360100379855E+04   -0.22522E-01   -0.16939E+00  6016   0.250E-01    0.161E+01
DAV: 277    -0.360116808310E+04   -0.16428E+00   -0.15944E+00  6016   0.463E-01    0.142E+01
DAV: 278    -0.360149859146E+04   -0.33051E+00   -0.20802E-01  6656   0.376E-01    0.192E+01
DAV: 279    -0.360138254679E+04    0.11604E+00   -0.48598E-02  5632   0.213E-01    0.193E+01
DAV: 280    -0.360146644664E+04   -0.83900E-01   -0.24562E-02  6272   0.109E-01    0.195E+01
DAV: 281    -0.360065434671E+04    0.81210E+00   -0.38293E+00  5760   0.613E-01    0.110E+01
DAV: 282    -0.360051513427E+04    0.13921E+00   -0.47718E-01  5632   0.369E-01    0.827E+00
DAV: 283    -0.360045543797E+04    0.59696E-01   -0.63759E-02  6016   0.206E-01    0.667E+00
DAV: 284    -0.359985551185E+04    0.59993E+00   -0.49038E-01  6016   0.429E-01    0.711E+00
DAV: 285    -0.359907370893E+04    0.78180E+00   -0.58864E-01  6016   0.484E-01    0.127E+01
DAV: 286    -0.359914393279E+04   -0.70224E-01   -0.10532E-01  6272   0.271E-01    0.159E+01
DAV: 287    -0.359912872063E+04    0.15212E-01   -0.11108E-01  6272   0.456E-01    0.149E+01
DAV: 288    -0.359967997549E+04   -0.55125E+00   -0.50161E-01  6528   0.596E-01    0.130E+01
DAV: 289    -0.359961683195E+04    0.63144E-01   -0.79091E-02  5632   0.243E-01    0.134E+01
DAV: 290    -0.359948056550E+04    0.13627E+00   -0.18653E-02  6528   0.134E-01    0.135E+01
DAV: 291    -0.359947529607E+04    0.52694E-02   -0.20349E+00  6016   0.516E-01    0.194E+01
DAV: 292    -0.359928822464E+04    0.18707E+00   -0.51822E-02  6016   0.214E-01    0.192E+01
DAV: 293    -0.359927005888E+04    0.18166E-01   -0.32128E-03  6400   0.451E-02    0.192E+01
DAV: 294    -0.359926362798E+04    0.64309E-02   -0.18341E-04  6144   0.107E-02    0.192E+01
DAV: 295    -0.359930281600E+04   -0.39188E-01   -0.38041E-03  5888   0.420E-02    0.193E+01
DAV: 296    -0.360108967062E+04   -0.17869E+01   -0.40922E+00  5760   0.867E-01    0.206E+01
DAV: 297    -0.360194333411E+04   -0.85366E+00   -0.43619E+00  6144   0.706E-01    0.285E+01
DAV: 298    -0.360256408831E+04   -0.62075E+00   -0.11333E+00  6016   0.353E-01    0.397E+01
DAV: 299    -0.360243187400E+04    0.13221E+00   -0.93554E-02  5632   0.291E-01    0.398E+01
DAV: 300    -0.360230522394E+04    0.12665E+00   -0.34744E-01  5760   0.249E-01    0.400E+01
DAV: 301    -0.360037418485E+04    0.19310E+01   -0.23701E+01  6016   0.121E+00    0.188E+01
DAV: 302    -0.360092497412E+04   -0.55079E+00   -0.41965E-01  5760   0.853E-01    0.153E+01
DAV: 303    -0.360110216762E+04   -0.17719E+00   -0.22501E-01  5760   0.326E-01    0.178E+01
DAV: 304    -0.360101385169E+04    0.88316E-01   -0.27282E-02  6144   0.137E-01    0.160E+01
DAV: 305    -0.360078791355E+04    0.22594E+00   -0.63765E-01  6144   0.219E-01    0.121E+01
DAV: 306    -0.360089575785E+04   -0.10784E+00   -0.40013E-02  5632   0.175E-01    0.129E+01
DAV: 307    -0.360082490885E+04    0.70849E-01   -0.32668E-02  6400   0.125E-01    0.126E+01
DAV: 308    -0.360083030998E+04   -0.54011E-02   -0.38261E-03  5888   0.531E-02    0.126E+01
DAV: 309    -0.360081196632E+04    0.18344E-01   -0.54869E-04  5760   0.253E-02    0.126E+01
DAV: 310    -0.360076253256E+04    0.49434E-01   -0.44719E-03  6144   0.577E-02    0.125E+01
DAV: 311    -0.360066316787E+04    0.99365E-01   -0.43710E-02  6272   0.208E-01    0.111E+01
DAV: 312    -0.360081117170E+04   -0.14800E+00   -0.31849E-02  5888   0.195E-01    0.125E+01
DAV: 313    -0.360083916756E+04   -0.27996E-01   -0.52995E-02  6272   0.123E-01    0.126E+01
DAV: 314    -0.360081818764E+04    0.20980E-01   -0.46320E-03  5760   0.596E-02    0.126E+01
DAV: 315    -0.360063883160E+04    0.17936E+00   -0.52444E-02  5888   0.229E-01    0.114E+01
DAV: 316    -0.360060045927E+04    0.38372E-01   -0.15059E+00  6144   0.446E-01    0.102E+01
DAV: 317    -0.360065441758E+04   -0.53958E-01   -0.54976E-02  5632   0.264E-01    0.962E+00
DAV: 318    -0.360059436873E+04    0.60049E-01   -0.74744E-02  6144   0.207E-01    0.988E+00
DAV: 319    -0.360058556444E+04    0.88043E-02   -0.86173E-03  6400   0.768E-02    0.999E+00
DAV: 320    -0.360057088782E+04    0.14677E-01   -0.21513E-03  5760   0.388E-02    0.982E+00
DAV: 321    -0.360066743362E+04   -0.96546E-01   -0.15623E-01  6016   0.371E-01    0.990E+00
DAV: 322    -0.360065969048E+04    0.77431E-02   -0.39417E-02  6016   0.139E-01    0.969E+00
DAV: 323    -0.360060476825E+04    0.54922E-01   -0.32906E-02  6016   0.108E-01    0.948E+00
DAV: 324    -0.360055414978E+04    0.50618E-01   -0.79152E-03  6144   0.845E-02    0.850E+00
DAV: 325    -0.360050648843E+04    0.47661E-01   -0.53338E-02  6144   0.167E-01    0.788E+00
DAV: 326    -0.360042828023E+04    0.78208E-01   -0.30180E-01  6272   0.559E-01    0.674E+00
DAV: 327    -0.360044762516E+04   -0.19345E-01   -0.93454E-02  6016   0.249E-01    0.672E+00
DAV: 328    -0.360044252794E+04    0.50972E-02   -0.95666E-03  5888   0.837E-02    0.671E+00
DAV: 329    -0.360044087246E+04    0.16555E-02   -0.94696E-04  6016   0.194E-02    0.670E+00
DAV: 330    -0.360044387086E+04   -0.29984E-02   -0.63029E-02  6016   0.109E-01    0.669E+00
DAV: 331    -0.360045125241E+04   -0.73816E-02   -0.86038E-02  5888   0.203E-01    0.673E+00
DAV: 332    -0.360047053206E+04   -0.19280E-01   -0.24774E-02  6016   0.908E-02    0.673E+00
DAV: 333    -0.360046030117E+04    0.10231E-01   -0.20175E-02  5888   0.673E-02    0.673E+00
DAV: 334    -0.360046545803E+04   -0.51569E-02   -0.40537E-02  6016   0.105E-01    0.675E+00
DAV: 335    -0.360044127316E+04    0.24185E-01   -0.29221E-02  6144   0.101E-01    0.679E+00
DAV: 336    -0.360048682897E+04   -0.45556E-01   -0.25549E-01  6016   0.375E-01    0.648E+00
DAV: 337    -0.360050781600E+04   -0.20987E-01   -0.68284E-02  6272   0.234E-01    0.637E+00
DAV: 338    -0.360052041018E+04   -0.12594E-01   -0.12315E-02  6272   0.129E-01    0.634E+00
DAV: 339    -0.360055638741E+04   -0.35977E-01   -0.18908E-02  6272   0.240E-01    0.635E+00
DAV: 340    -0.360060613741E+04   -0.49750E-01   -0.23617E-02  6656   0.207E-01    0.623E+00
DAV: 341    -0.360099798898E+04   -0.39185E+00   -0.63356E+00  5632   0.144E+00    0.172E+01
DAV: 342    -0.360131600450E+04   -0.31802E+00   -0.61004E+00  5760   0.103E+00    0.196E+01
DAV: 343    -0.360109817626E+04    0.21783E+00   -0.48866E-01  5760   0.499E-01    0.148E+01
DAV: 344    -0.360320531458E+04   -0.21071E+01   -0.11082E+01  6144   0.676E-01    0.386E+01
DAV: 345    -0.360141096262E+04    0.17944E+01   -0.22096E+00  5504   0.559E-01    0.274E+01
DAV: 346    -0.360460919081E+04   -0.31982E+01   -0.75005E+00  6016   0.109E+00    0.432E+01
DAV: 347    -0.360132742237E+04    0.32818E+01   -0.11550E+01  6272   0.896E-01    0.239E+01
DAV: 348    -0.360157430801E+04   -0.24689E+00   -0.16070E-01  5760   0.334E-01    0.237E+01
DAV: 349    -0.360108946018E+04    0.48485E+00   -0.14790E+00  6784   0.368E-01    0.160E+01
DAV: 350    -0.360117653997E+04   -0.87080E-01   -0.42217E-02  5632   0.204E-01    0.160E+01
DAV: 351    -0.360167297794E+04   -0.49644E+00   -0.44530E+00  6400   0.948E-01    0.261E+01
DAV: 352    -0.360115452871E+04    0.51845E+00   -0.28771E-01  5632   0.360E-01    0.221E+01
DAV: 353    -0.360090765901E+04    0.24687E+00   -0.33578E-01  6272   0.214E-01    0.188E+01
DAV: 354    -0.360032742948E+04    0.58023E+00   -0.60362E+00  6784   0.705E-01    0.121E+01
DAV: 355    -0.360064646128E+04   -0.31903E+00   -0.40267E-01  6144   0.559E-01    0.109E+01
DAV: 356    -0.360035284092E+04    0.29362E+00   -0.39502E-01  6656   0.492E-01    0.110E+01
DAV: 357    -0.360025155263E+04    0.10129E+00   -0.56006E-02  6144   0.198E-01    0.109E+01
DAV: 358    -0.360017216810E+04    0.79385E-01   -0.50470E-02  5888   0.146E-01    0.106E+01
DAV: 359    -0.359984430648E+04    0.32786E+00   -0.46501E+00  6272   0.711E-01    0.104E+01
DAV: 360    -0.359975260739E+04    0.91699E-01   -0.21108E-01  5760   0.471E-01    0.103E+01
DAV: 361    -0.359970289753E+04    0.49710E-01   -0.46475E-02  6016   0.287E-01    0.105E+01
DAV: 362    -0.359969069420E+04    0.12203E-01   -0.14716E-02  5760   0.141E-01    0.997E+00
DAV: 363    -0.359969946816E+04   -0.87740E-02   -0.16508E-02  6272   0.887E-02    0.104E+01
DAV: 364    -0.359968868937E+04    0.10779E-01   -0.32131E-02  6016   0.869E-02    0.104E+01
DAV: 365    -0.359964658735E+04    0.42102E-01   -0.46303E-02  6144   0.108E-01    0.107E+01
DAV: 366    -0.359959358761E+04    0.53000E-01   -0.17747E-01  6528   0.376E-01    0.988E+00
DAV: 367    -0.359960256231E+04   -0.89747E-02   -0.16761E-02  5632   0.106E-01    0.958E+00
DAV: 368    -0.359960021223E+04    0.23501E-02   -0.22492E-03  5760   0.433E-02    0.958E+00
DAV: 369    -0.359963540142E+04   -0.35189E-01   -0.56905E-02  6400   0.110E-01    0.949E+00
DAV: 370    -0.359976072095E+04   -0.12532E+00   -0.54049E-01  6272   0.304E-01    0.889E+00
DAV: 371    -0.360000193629E+04   -0.24122E+00   -0.27533E+00  6272   0.452E-01    0.926E+00
DAV: 372    -0.359993273457E+04    0.69202E-01   -0.12183E-01  5760   0.266E-01    0.971E+00
DAV: 373    -0.360001320765E+04   -0.80473E-01   -0.28578E-02  5632   0.138E-01    0.109E+01
DAV: 374    -0.360005415480E+04   -0.40947E-01   -0.12014E-02  5760   0.949E-02    0.114E+01
DAV: 375    -0.360000130836E+04    0.52846E-01   -0.60851E-01  6144   0.317E-01    0.830E+00
DAV: 376    -0.360010591208E+04   -0.10460E+00   -0.46449E-02  5632   0.233E-01    0.884E+00
DAV: 377    -0.360013783820E+04   -0.31926E-01   -0.11598E-01  6272   0.126E-01    0.110E+01
DAV: 378    -0.360013368781E+04    0.41504E-02   -0.23028E-02  5632   0.123E-01    0.116E+01
DAV: 379    -0.360020428343E+04   -0.70596E-01   -0.10141E-01  6528   0.147E-01    0.108E+01
DAV: 380    -0.360029659968E+04   -0.92316E-01   -0.12747E-01  6528   0.146E-01    0.112E+01
DAV: 381    -0.360032044917E+04   -0.23849E-01   -0.13262E-01  6144   0.202E-01    0.999E+00
DAV: 382    -0.360030476052E+04    0.15689E-01   -0.41772E-02  5760   0.109E-01    0.105E+01
DAV: 383    -0.360025800330E+04    0.46757E-01   -0.80417E-03  6272   0.715E-02    0.109E+01
DAV: 384    -0.360020436344E+04    0.53640E-01   -0.23438E-02  6272   0.945E-02    0.114E+01
DAV: 385    -0.360019018392E+04    0.14180E-01   -0.46114E-02  6144   0.102E-01    0.115E+01
DAV: 386    -0.360025404720E+04   -0.63863E-01   -0.11761E+01  6272   0.156E+00    0.122E+01
DAV: 387    -0.360046224738E+04   -0.20820E+00   -0.28865E-01  5888   0.483E-01    0.995E+00
DAV: 388    -0.360053420304E+04   -0.71956E-01   -0.38458E-02  6144   0.147E-01    0.964E+00
DAV: 389    -0.360055668604E+04   -0.22483E-01   -0.33033E-01  6272   0.278E-01    0.111E+01
DAV: 390    -0.360056856143E+04   -0.11875E-01   -0.79944E-01  6272   0.324E-01    0.102E+01
DAV: 391    -0.360028740643E+04    0.28115E+00   -0.49596E+00  6144   0.868E-01    0.439E+00
DAV: 392    -0.360066672954E+04   -0.37932E+00   -0.24556E-01  5760   0.467E-01    0.884E+00
DAV: 393    -0.360072512901E+04   -0.58399E-01   -0.19004E-01  6144   0.400E-01    0.841E+00
DAV: 394    -0.360069318640E+04    0.31943E-01   -0.49509E-01  6144   0.361E-01    0.993E+00
DAV: 395    -0.360057986752E+04    0.11332E+00   -0.23962E-01  6272   0.282E-01    0.109E+01
DAV: 396    -0.360056021598E+04    0.19652E-01   -0.35622E+00  6144   0.100E+00    0.506E+00
DAV: 397    -0.360097471010E+04   -0.41449E+00   -0.43224E-01  5888   0.521E-01    0.717E+00
DAV: 398    -0.360094789302E+04    0.26817E-01   -0.35764E-02  6016   0.179E-01    0.716E+00
DAV: 399    -0.360096612249E+04   -0.18229E-01   -0.64130E-02  6144   0.101E-01    0.592E+00
DAV: 400    -0.360133102726E+04   -0.36490E+00   -0.84477E-01  6272   0.449E-01    0.122E+01
DAV: 401    -0.360113502925E+04    0.19600E+00   -0.11957E-01  5632   0.281E-01    0.103E+01
DAV: 402    -0.360102251855E+04    0.11251E+00   -0.55595E-02  5888   0.189E-01    0.722E+00
DAV: 403    -0.360108991401E+04   -0.67395E-01   -0.35728E-01  5888   0.248E-01    0.905E+00
DAV: 404    -0.360079546582E+04    0.29445E+00   -0.17528E+00  5888   0.239E-01    0.745E+00
DAV: 405    -0.360095707461E+04   -0.16161E+00   -0.62770E-01  5632   0.211E-01    0.533E+00
DAV: 406    -0.360102513573E+04   -0.68061E-01   -0.23309E-01  5760   0.258E-01    0.485E+00
DAV: 407    -0.360100206415E+04    0.23072E-01   -0.21820E-01  6016   0.305E-01    0.460E+00
DAV: 408    -0.360097736536E+04    0.24699E-01   -0.13706E-01  6528   0.271E-01    0.453E+00
DAV: 409    -0.360097227952E+04    0.50858E-02   -0.11443E-01  5888   0.173E-01    0.451E+00
DAV: 410    -0.360095023979E+04    0.22040E-01   -0.82022E-02  6016   0.122E-01    0.461E+00
DAV: 411    -0.360104986029E+04   -0.99620E-01   -0.25869E-01  5632   0.387E-01    0.442E+00
DAV: 412    -0.360106269770E+04   -0.12837E-01   -0.55113E-02  5760   0.131E-01    0.438E+00
DAV: 413    -0.360105565144E+04    0.70463E-02   -0.70988E-02  5760   0.115E-01    0.433E+00
DAV: 414    -0.360099704573E+04    0.58606E-01   -0.18429E-01  5504   0.198E-01    0.430E+00
DAV: 415    -0.360095366899E+04    0.43377E-01   -0.55190E-02  6272   0.142E-01    0.431E+00
DAV: 416    -0.360100006675E+04   -0.46398E-01   -0.49473E-02  5760   0.222E-01    0.431E+00
DAV: 417    -0.360100120474E+04   -0.11380E-02   -0.36959E-02  6400   0.167E-01    0.429E+00
DAV: 418    -0.360100287356E+04   -0.16688E-02   -0.13398E-02  6528   0.930E-02    0.428E+00
DAV: 419    -0.360098741579E+04    0.15458E-01   -0.17278E-02  6272   0.108E-01    0.429E+00
DAV: 420    -0.360100048567E+04   -0.13070E-01   -0.95506E-03  5632   0.922E-02    0.428E+00
DAV: 421    -0.360028323410E+04    0.71725E+00   -0.30300E+00  5888   0.120E+00    0.468E+00
DAV: 422    -0.360066803121E+04   -0.38480E+00   -0.79695E-01  5632   0.941E-01    0.405E+00
DAV: 423    -0.360069489921E+04   -0.26868E-01   -0.11032E-01  6144   0.226E-01    0.397E+00
DAV: 424    -0.360063106508E+04    0.63834E-01   -0.22074E-01  6016   0.401E-01    0.396E+00
DAV: 425    -0.360059913018E+04    0.31935E-01   -0.65306E-02  6400   0.206E-01    0.401E+00
DAV: 426    -0.360062134530E+04   -0.22215E-01   -0.32887E-01  6144   0.324E-01    0.395E+00
DAV: 427    -0.360067009798E+04   -0.48753E-01   -0.74813E-01  6400   0.300E-01    0.113E+01
DAV: 428    -0.360064539733E+04    0.24701E-01   -0.87105E-02  5632   0.260E-01    0.119E+01
DAV: 429    -0.360061362458E+04    0.31773E-01   -0.18857E-02  5888   0.114E-01    0.133E+01
DAV: 430    -0.360058899032E+04    0.24634E-01   -0.35358E-03  6016   0.593E-02    0.137E+01
DAV: 431    -0.360083313702E+04   -0.24415E+00   -0.75127E-01  5760   0.302E-01    0.221E+01
DAV: 432    -0.360058191844E+04    0.25122E+00   -0.91554E-02  6144   0.200E-01    0.191E+01
DAV: 433    -0.360058101429E+04    0.90415E-03   -0.50420E-03  5888   0.659E-02    0.186E+01
DAV: 434    -0.360061425186E+04   -0.33238E-01   -0.13904E-03  6016   0.289E-02    0.194E+01
DAV: 435    -0.360066812038E+04   -0.53869E-01   -0.74556E-03  5888   0.520E-02    0.206E+01
DAV: 436    -0.360097680530E+04   -0.30868E+00   -0.18852E+01  5888   0.122E+00    0.406E+01
DAV: 437    -0.359853943534E+04    0.24374E+01   -0.48412E-01  5888   0.667E-01    0.369E+01
DAV: 438    -0.359827341168E+04    0.26602E+00   -0.92818E-02  6400   0.183E-01    0.348E+01
DAV: 439    -0.359831267984E+04   -0.39268E-01   -0.10087E-02  5632   0.932E-02    0.347E+01
DAV: 440    -0.359830690689E+04    0.57729E-02   -0.95798E-04  6400   0.258E-02    0.345E+01
DAV: 441    -0.359981520617E+04   -0.15083E+01   -0.49437E+00  6016   0.864E-01    0.340E+01
DAV: 442    -0.359876886957E+04    0.10463E+01   -0.14054E+01  6016   0.891E-01    0.869E+00
DAV: 443    -0.360008035852E+04   -0.13115E+01   -0.47525E+00  5760   0.120E+00    0.117E+01
DAV: 444    -0.359981789996E+04    0.26246E+00   -0.31466E-01  5632   0.437E-01    0.116E+01
DAV: 445    -0.359981374723E+04    0.41527E-02   -0.78561E-02  6016   0.241E-01    0.124E+01
DAV: 446    -0.360052787968E+04   -0.71413E+00   -0.39467E+00  6016   0.107E+00    0.350E+00
DAV: 447    -0.360076117192E+04   -0.23329E+00   -0.57958E-01  6144   0.461E-01    0.312E+00
DAV: 448    -0.360077401287E+04   -0.12841E-01   -0.17191E-01  6400   0.450E-01    0.318E+00
DAV: 449    -0.360078270090E+04   -0.86880E-02   -0.22476E-01  5888   0.267E-01    0.294E+00
DAV: 450    -0.360077806837E+04    0.46325E-02   -0.51887E-02  6144   0.117E-01    0.307E+00
DAV: 451    -0.360074337339E+04    0.34695E-01   -0.14586E-01  6144   0.148E-01    0.324E+00
DAV: 452    -0.360071181759E+04    0.31556E-01   -0.16332E-01  6016   0.253E-01    0.346E+00
DAV: 453    -0.360075142558E+04   -0.39608E-01   -0.41975E-02  5632   0.136E-01    0.337E+00
DAV: 454    -0.360074348614E+04    0.79394E-02   -0.44883E-02  6016   0.157E-01    0.313E+00
DAV: 455    -0.360076125438E+04   -0.17768E-01   -0.40728E-01  5760   0.386E-01    0.307E+00
DAV: 456    -0.360068957308E+04    0.71681E-01   -0.36140E-01  5888   0.407E-01    0.326E+00
DAV: 457    -0.360070398050E+04   -0.14407E-01   -0.22421E-02  5760   0.127E-01    0.315E+00
DAV: 458    -0.360070659021E+04   -0.26097E-02   -0.62425E-04  6912   0.264E-02    0.310E+00
DAV: 459    -0.360070602957E+04    0.56064E-03   -0.45532E-03  6016   0.675E-02    0.324E+00
DAV: 460    -0.360072914125E+04   -0.23112E-01   -0.93453E-02  6144   0.309E-01    0.292E+00
DAV: 461    -0.360075091900E+04   -0.21778E-01   -0.11170E-01  6656   0.287E-01    0.382E+00
DAV: 462    -0.360075973536E+04   -0.88164E-02   -0.32527E-02  5888   0.148E-01    0.375E+00
DAV: 463    -0.360076484484E+04   -0.51095E-02   -0.50992E-02  6016   0.124E-01    0.491E+00
DAV: 464    -0.360075747671E+04    0.73681E-02   -0.34361E-01  6016   0.369E-01    0.528E+00
DAV: 465    -0.360080647242E+04   -0.48996E-01   -0.14536E-01  5888   0.156E-01    0.906E+00
DAV: 466    -0.360075024218E+04    0.56230E-01   -0.11693E-01  5760   0.232E-01    0.618E+00
DAV: 467    -0.360078270850E+04   -0.32466E-01   -0.12405E-02  5760   0.102E-01    0.678E+00
DAV: 468    -0.360085420388E+04   -0.71495E-01   -0.14239E-02  6784   0.120E-01    0.109E+01
DAV: 469    -0.360075102264E+04    0.10318E+00   -0.22633E-02  5760   0.170E-01    0.751E+00
DAV: 470    -0.360076858800E+04   -0.17565E-01   -0.67678E-03  5760   0.750E-02    0.640E+00
DAV: 471    -0.360067983732E+04    0.88751E-01   -0.11794E+00  6016   0.425E-01    0.332E+00
DAV: 472    -0.360097635949E+04   -0.29652E+00   -0.88453E-01  5888   0.361E-01    0.149E+01
DAV: 473    -0.360074525156E+04    0.23111E+00   -0.16247E-01  5632   0.264E-01    0.107E+01
DAV: 474    -0.360080045504E+04   -0.55203E-01   -0.46863E-02  6016   0.111E-01    0.119E+01
DAV: 475    -0.360078524570E+04    0.15209E-01   -0.11252E-01  6144   0.151E-01    0.130E+01
DAV: 476    -0.360063972039E+04    0.14553E+00   -0.12844E+00  6016   0.343E-01    0.303E+00
DAV: 477    -0.360079988697E+04   -0.16017E+00   -0.24283E-01  5760   0.341E-01    0.448E+00
DAV: 478    -0.360080974923E+04   -0.98623E-02   -0.68850E-02  6016   0.167E-01    0.563E+00
DAV: 479    -0.360090434332E+04   -0.94594E-01   -0.27437E-01  6016   0.185E-01    0.111E+01
DAV: 480    -0.360094323941E+04   -0.38896E-01   -0.37289E-02  5888   0.199E-01    0.118E+01
DAV: 481    -0.360074880393E+04    0.19444E+00   -0.39290E-01  6144   0.360E-01    0.771E+00
DAV: 482    -0.360083203887E+04   -0.83235E-01   -0.19288E-01  5632   0.201E-01    0.960E+00
DAV: 483    -0.360084467051E+04   -0.12632E-01   -0.96970E-03  5760   0.925E-02    0.107E+01
DAV: 484    -0.360082654536E+04    0.18125E-01   -0.24855E-03  5632   0.552E-02    0.105E+01
DAV: 485    -0.360081862595E+04    0.79194E-02   -0.28275E-03  6400   0.348E-02    0.103E+01
DAV: 486    -0.360047678609E+04    0.34184E+00   -0.65641E+00  6144   0.109E+00    0.366E+00
DAV: 487    -0.360071867623E+04   -0.24189E+00   -0.16187E-01  5760   0.364E-01    0.373E+00
DAV: 488    -0.360070997048E+04    0.87057E-02   -0.20482E-02  6528   0.186E-01    0.405E+00
DAV: 489    -0.360069667243E+04    0.13298E-01   -0.12254E-02  6400   0.129E-01    0.433E+00
DAV: 490    -0.360069538031E+04    0.12921E-02   -0.32808E-03  5760   0.496E-02    0.433E+00
DAV: 491    -0.360053466506E+04    0.16072E+00   -0.13949E+00  6144   0.842E-01    0.607E+00
DAV: 492    -0.360061044168E+04   -0.75777E-01   -0.19315E-01  5888   0.278E-01    0.547E+00
DAV: 493    -0.360066019728E+04   -0.49756E-01   -0.16975E-01  6400   0.329E-01    0.501E+00
DAV: 494    -0.360069842005E+04   -0.38223E-01   -0.67940E-02  6144   0.282E-01    0.390E+00
DAV: 495    -0.360073175740E+04   -0.33337E-01   -0.54684E-02  6656   0.246E-01    0.285E+00
DAV: 496    -0.360076952795E+04   -0.37771E-01   -0.20133E-01  6144   0.447E-01    0.280E+00
DAV: 497    -0.360078466242E+04   -0.15134E-01   -0.53552E-02  6016   0.129E-01    0.268E+00
DAV: 498    -0.360078079888E+04    0.38635E-02   -0.20334E-02  6144   0.136E-01    0.289E+00
DAV: 499    -0.360076632875E+04    0.14470E-01   -0.48282E-02  6656   0.244E-01    0.266E+00
DAV: 500    -0.360076385931E+04    0.24694E-02   -0.67111E-02  6656   0.214E-01
 -----------------------------------------------------------------------------
|                                                                             |
|           W    W    AA    RRRRR   N    N  II  N    N   GGGG   !!!           |
|           W    W   A  A   R    R  NN   N  II  NN   N  G    G  !!!           |
|           W    W  A    A  R    R  N N  N  II  N N  N  G       !!!           |
|           W WW W  AAAAAA  RRRRR   N  N N  II  N  N N  G  GGG   !            |
|           WW  WW  A    A  R   R   N   NN  II  N   NN  G    G                |
|           W    W  A    A  R    R  N    N  II  N    N   GGGG   !!!           |
|                                                                             |
|     The electronic self-consistency was not achieved in the given           |
|     number of steps (NELM). The forces and other quantities evaluated       |
|     might not be reliable so examine the results carefully. If you find     |
|     spurious results, we suggest increasing NELM, if you were close to      |
|     convergence or switching to a different ALGO or adjusting the           |
|     density mixing parameters otherwise.                                    |
|                                                                             |
 -----------------------------------------------------------------------------

 augmentation electrons   1804.87492520355     
 soft         electrons  0.000000000000000E+000
 total        electrons   1804.87492520355     
 augmentation electrons -3.883652002409879E-002
 soft         electrons  0.000000000000000E+000
 total        electrons -3.883652002409879E-002
 augmentation electrons   1897.59959528426     
 soft         electrons  0.000000000000000E+000
 total        electrons   1897.59959528426     
 augmentation electrons   1840.97656334226     
 soft         electrons  0.000000000000000E+000
 total        electrons   1840.97656334226     
 augmentation electrons   56.1930268660417     
 soft         electrons   1748.68180941050     
 total        electrons   1804.87483627654     
 augmentation electrons   18.2198890108430     
 soft         electrons   1748.68180941050     
 total        electrons   29.5700477857675     
 translations:           0           1           0
   1 F= -.36383751E+04 E0= -.36383627E+04  d E =-.363838E+04  mag=    29.6089
 curvature:   0.00 expect dE= 0.000E+00 dE for cont linesearch  0.000E+00
 trial: gam= 0.00000 g(F)=  0.172E+00 g(S)=  0.000E+00 ort = 0.000E+00 (trialstep = 0.100E+01)
 search vector abs. value=  0.172E+00
 bond charge predicted
       N       E                     dE             d eps       ncg     rms          rms(c)
DAV:   1    -0.361342018756E+04   -0.12654E+02   -0.79083E+01  6784   0.678E+00    0.523E+01
DAV:   2    -0.384128224758E+04   -0.22786E+03   -0.26339E+03  6528   0.244E+01    0.136E+02
DAV:   3    -0.371666332495E+04    0.12462E+03   -0.31065E+02  6400   0.938E+00    0.903E+01
DAV:   4    -0.369110140779E+04    0.25562E+02   -0.45752E+02  6528   0.943E+00    0.822E+01
DAV:   5    -0.360396312070E+04    0.87138E+02   -0.59527E+01  6144   0.980E+00    0.443E+01
DAV:   6    -0.359710646624E+04    0.68567E+01   -0.45233E+01  5760   0.259E+00    0.270E+01
DAV:   7    -0.360097528280E+04   -0.38688E+01   -0.64339E+01  6272   0.220E+00    0.439E+01
DAV:   8    -0.359901468447E+04    0.19606E+01   -0.59048E+01  6144   0.183E+00    0.264E+01
DAV:   9    -0.360063914398E+04   -0.16245E+01   -0.35441E+00  5888   0.739E-01    0.313E+01
DAV:  10    -0.360050813329E+04    0.13101E+00   -0.80332E-02  5888   0.253E-01    0.312E+01
DAV:  11    -0.360037579706E+04    0.13234E+00   -0.18876E-02  5888   0.106E-01    0.292E+01
DAV:  12    -0.360097282690E+04   -0.59703E+00   -0.55917E-02  6272   0.216E-01    0.282E+01
DAV:  13    -0.360215612739E+04   -0.11833E+01   -0.45088E-01  6400   0.380E-01    0.318E+01
DAV:  14    -0.360343223505E+04   -0.12761E+01   -0.13865E+00  6272   0.128E+00    0.265E+01
DAV:  15    -0.360356453960E+04   -0.13230E+00   -0.11306E+00  6400   0.442E-01    0.240E+01
DAV:  16    -0.360387142139E+04   -0.30688E+00   -0.73261E-01  6016   0.228E-01    0.254E+01
DAV:  17    -0.360369894357E+04    0.17248E+00   -0.37441E-02  5632   0.179E-01    0.253E+01
DAV:  18    -0.360391120360E+04   -0.21226E+00   -0.10960E-01  6144   0.240E-01    0.253E+01
DAV:  19    -0.360403940136E+04   -0.12820E+00   -0.27669E-01  6528   0.218E-01    0.251E+01
DAV:  20    -0.360376869018E+04    0.27071E+00   -0.11082E+00  6528   0.333E-01    0.248E+01
DAV:  21    -0.360382168780E+04   -0.52998E-01   -0.56391E-02  5632   0.142E-01    0.248E+01
DAV:  22    -0.360341835921E+04    0.40333E+00   -0.66431E-01  5888   0.390E-01    0.252E+01
DAV:  23    -0.360342966575E+04   -0.11307E-01   -0.19103E-02  5760   0.984E-02    0.252E+01
DAV:  24    -0.360342845172E+04    0.12140E-02   -0.53767E-04  6528   0.160E-02    0.252E+01
DAV:  25    -0.360334084780E+04    0.87604E-01   -0.32090E-03  5888   0.511E-02    0.252E+01
DAV:  26    -0.360335494409E+04   -0.14096E-01   -0.14332E-03  5760   0.265E-02    0.252E+01
DAV:  27    -0.360335460342E+04    0.34067E-03   -0.80788E-05  6016   0.650E-03    0.252E+01
DAV:  28    -0.360315587085E+04    0.19873E+00   -0.29033E-01  5760   0.250E-01    0.252E+01
DAV:  29    -0.360318214735E+04   -0.26277E-01   -0.42566E-02  5632   0.892E-02    0.252E+01
DAV:  30    -0.360289211834E+04    0.29003E+00   -0.14800E-01  6144   0.316E-01    0.253E+01
DAV:  31    -0.360252075737E+04    0.37136E+00   -0.12372E-01  6144   0.317E-01    0.256E+01
DAV:  32    -0.360243117604E+04    0.89581E-01   -0.25319E-02  6400   0.122E-01    0.258E+01
DAV:  33    -0.360232345049E+04    0.10773E+00   -0.29504E-01  6400   0.516E-01    0.246E+01
DAV:  34    -0.360259609165E+04   -0.27264E+00   -0.46144E+00  6528   0.782E-01    0.271E+01
DAV:  35    -0.360250697650E+04    0.89115E-01   -0.21645E+00  5888   0.507E-01    0.222E+01
DAV:  36    -0.360234628779E+04    0.16069E+00   -0.98059E-02  5760   0.272E-01    0.221E+01
DAV:  37    -0.360236703200E+04   -0.20744E-01   -0.22845E-02  6016   0.895E-02    0.219E+01
DAV:  38    -0.360209735497E+04    0.26968E+00   -0.18428E+00  5760   0.489E-01    0.203E+01
DAV:  39    -0.360216292896E+04   -0.65574E-01   -0.56606E-02  5760   0.221E-01    0.197E+01
DAV:  40    -0.360200526372E+04    0.15767E+00   -0.41901E+00  5632   0.241E-01    0.184E+01
DAV:  41    -0.360200488655E+04    0.37717E-03   -0.18975E-02  5888   0.122E-01    0.184E+01
DAV:  42    -0.360199728359E+04    0.76030E-02   -0.15343E-03  6016   0.367E-02    0.184E+01
DAV:  43    -0.360198577357E+04    0.11510E-01   -0.25462E-04  6400   0.135E-02    0.184E+01
DAV:  44    -0.360178760326E+04    0.19817E+00   -0.71758E-02  5760   0.104E-01    0.183E+01
DAV:  45    -0.360181612799E+04   -0.28525E-01   -0.35301E-02  5760   0.571E-02    0.182E+01
DAV:  46    -0.360101480198E+04    0.80133E+00   -0.34752E-01  5504   0.340E-01    0.183E+01
DAV:  47    -0.359930692470E+04    0.17079E+01   -0.11911E+01  5888   0.132E+00    0.206E+01
DAV:  48    -0.359744314167E+04    0.18638E+01   -0.14526E+00  5760   0.668E-01    0.198E+01
DAV:  49    -0.359718419027E+04    0.25895E+00   -0.15200E-01  6016   0.261E-01    0.216E+01
DAV:  50    -0.359723671112E+04   -0.52521E-01   -0.14244E-02  5888   0.941E-02    0.216E+01
DAV:  51    -0.359715140816E+04    0.85303E-01   -0.66030E-03  6144   0.480E-02    0.217E+01
DAV:  52    -0.357131350108E+04    0.25838E+02   -0.28150E+01  5760   0.292E+00    0.317E+01
DAV:  53    -0.356716971380E+04    0.41438E+01   -0.46885E+00  6272   0.122E+00    0.349E+01
DAV:  54    -0.356159049688E+04    0.55792E+01   -0.11043E+00  6144   0.664E-01    0.355E+01
DAV:  55    -0.356026097737E+04    0.13295E+01   -0.15987E-01  6016   0.233E-01    0.369E+01
DAV:  56    -0.356119735408E+04   -0.93638E+00   -0.86503E-01  6016   0.244E-01    0.440E+01
DAV:  57    -0.360504408835E+04   -0.43847E+02   -0.22603E+02  6016   0.582E+00    0.581E+01
DAV:  58    -0.360231145747E+04    0.27326E+01   -0.21068E+01  6016   0.371E+00    0.433E+01
DAV:  59    -0.360046425429E+04    0.18472E+01   -0.54244E+00  5888   0.209E+00    0.192E+01
DAV:  60    -0.359887993186E+04    0.15843E+01   -0.48487E+00  5632   0.106E+00    0.175E+01
DAV:  61    -0.359850544466E+04    0.37449E+00   -0.71440E-01  5888   0.685E-01    0.162E+01
DAV:  62    -0.360186536989E+04   -0.33599E+01   -0.27371E+00  5888   0.935E-01    0.157E+01
DAV:  63    -0.360208934551E+04   -0.22398E+00   -0.18459E+00  5760   0.674E-01    0.154E+01
DAV:  64    -0.360179127460E+04    0.29807E+00   -0.36129E-01  5760   0.287E-01    0.143E+01
DAV:  65    -0.360174028766E+04    0.50987E-01   -0.14197E-01  6016   0.183E-01    0.142E+01
DAV:  66    -0.360235201591E+04   -0.61173E+00   -0.75199E-01  5760   0.397E-01    0.156E+01
DAV:  67    -0.360244797504E+04   -0.95959E-01   -0.17283E+00  5760   0.529E-01    0.164E+01
DAV:  68    -0.360246502223E+04   -0.17047E-01   -0.92059E-02  5760   0.179E-01    0.164E+01
DAV:  69    -0.360245619998E+04    0.88222E-02   -0.35032E-01  5888   0.247E-01    0.183E+01
DAV:  70    -0.360274184579E+04   -0.28565E+00   -0.39975E-01  5760   0.295E-01    0.181E+01
DAV:  71    -0.360293943358E+04   -0.19759E+00   -0.12728E-01  6016   0.277E-01    0.180E+01
DAV:  72    -0.360284935958E+04    0.90074E-01   -0.74446E-01  5888   0.508E-01    0.181E+01
DAV:  73    -0.360277784590E+04    0.71514E-01   -0.10637E-01  5760   0.178E-01    0.180E+01
DAV:  74    -0.360286042091E+04   -0.82575E-01   -0.60315E-01  5760   0.631E-01    0.170E+01
DAV:  75    -0.360281928801E+04    0.41133E-01   -0.59379E-01  5888   0.444E-01    0.166E+01
DAV:  76    -0.360270153406E+04    0.11775E+00   -0.30232E-01  6016   0.230E-01    0.164E+01
DAV:  77    -0.360151653452E+04    0.11850E+01   -0.82725E+00  5632   0.111E+00    0.183E+01
DAV:  78    -0.360049702140E+04    0.10195E+01   -0.74026E-01  6016   0.491E-01    0.180E+01
DAV:  79    -0.359954190164E+04    0.95512E+00   -0.28376E-01  6656   0.391E-01    0.170E+01
DAV:  80    -0.359920754157E+04    0.33436E+00   -0.40944E-01  6400   0.227E-01    0.146E+01
DAV:  81    -0.360095652644E+04   -0.17490E+01   -0.34043E+00  6400   0.954E-01    0.184E+01
DAV:  82    -0.359983816866E+04    0.11184E+01   -0.12605E+00  5632   0.108E+00    0.155E+01
DAV:  83    -0.360170839958E+04   -0.18702E+01   -0.66844E+00  6144   0.145E+00    0.177E+01
DAV:  84    -0.360176896758E+04   -0.60568E-01   -0.51825E-01  6016   0.468E-01    0.180E+01
DAV:  85    -0.360110413212E+04    0.66484E+00   -0.37084E-01  6016   0.310E-01    0.182E+01
DAV:  86    -0.360032736337E+04    0.77677E+00   -0.48718E-01  6144   0.388E-01    0.136E+01
DAV:  87    -0.360051196727E+04   -0.18460E+00   -0.10274E+00  5888   0.422E-01    0.123E+01
DAV:  88    -0.360092552991E+04   -0.41356E+00   -0.54704E-01  6144   0.327E-01    0.154E+01
DAV:  89    -0.360085037090E+04    0.75159E-01   -0.49044E-02  5632   0.224E-01    0.144E+01
DAV:  90    -0.360087543882E+04   -0.25068E-01   -0.10327E-02  6016   0.737E-02    0.141E+01
DAV:  91    -0.360095736251E+04   -0.81924E-01   -0.62321E-02  5632   0.172E-01    0.152E+01
DAV:  92    -0.360092868651E+04    0.28676E-01   -0.88711E-02  5888   0.211E-01    0.137E+01
DAV:  93    -0.360128101186E+04   -0.35233E+00   -0.28730E-01  5632   0.182E-01    0.150E+01
DAV:  94    -0.360141180268E+04   -0.13079E+00   -0.79621E-02  5760   0.197E-01    0.150E+01
DAV:  95    -0.360145095652E+04   -0.39154E-01   -0.77302E-02  6016   0.120E-01    0.151E+01
DAV:  96    -0.360145110731E+04   -0.15079E-03   -0.28701E-03  5760   0.442E-02    0.151E+01
DAV:  97    -0.360281602777E+04   -0.13649E+01   -0.30168E+00  5888   0.723E-01    0.275E+01
DAV:  98    -0.360262254278E+04    0.19348E+00   -0.18468E-01  5632   0.328E-01    0.287E+01
DAV:  99    -0.360246404348E+04    0.15850E+00   -0.11761E-02  6144   0.995E-02    0.286E+01
DAV: 100    -0.360244414771E+04    0.19896E-01   -0.77226E-04  6272   0.198E-02    0.286E+01
DAV: 101    -0.360248273721E+04   -0.38589E-01   -0.17314E-03  6016   0.131E-02    0.286E+01
DAV: 102    -0.359992106979E+04    0.25617E+01   -0.23191E+01  6272   0.223E+00    0.140E+01
DAV: 103    -0.360160032930E+04   -0.16793E+01   -0.11461E+00  5632   0.823E-01    0.156E+01
DAV: 104    -0.360203515171E+04   -0.43482E+00   -0.58779E-01  6400   0.398E-01    0.159E+01
DAV: 105    -0.360206652467E+04   -0.31373E-01   -0.34935E-02  5632   0.140E-01    0.159E+01
DAV: 106    -0.360213805014E+04   -0.71525E-01   -0.70663E-03  5888   0.488E-02    0.159E+01
DAV: 107    -0.360284795373E+04   -0.70990E+00   -0.96707E-01  5888   0.584E-01    0.164E+01
DAV: 108    -0.360348782976E+04   -0.63988E+00   -0.54705E-01  6144   0.553E-01    0.207E+01
DAV: 109    -0.360357104271E+04   -0.83213E-01   -0.12637E-01  5632   0.268E-01    0.208E+01
DAV: 110    -0.360355416703E+04    0.16876E-01   -0.13533E-02  6272   0.675E-02    0.208E+01
DAV: 111    -0.360379843031E+04   -0.24426E+00   -0.66915E-02  6016   0.115E-01    0.207E+01
DAV: 112    -0.360432152542E+04   -0.52310E+00   -0.55696E+00  6016   0.122E+00    0.283E+01
DAV: 113    -0.360359267477E+04    0.72885E+00   -0.19216E+00  5888   0.538E-01    0.222E+01
DAV: 114    -0.360381857916E+04   -0.22590E+00   -0.31944E-01  6016   0.330E-01    0.220E+01
DAV: 115    -0.360379962348E+04    0.18956E-01   -0.35429E-02  6272   0.111E-01    0.219E+01
DAV: 116    -0.360381864497E+04   -0.19021E-01   -0.50093E-03  5888   0.442E-02    0.219E+01
DAV: 117    -0.360453671905E+04   -0.71807E+00   -0.36439E+00  5888   0.816E-01    0.217E+01
DAV: 118    -0.360580096444E+04   -0.12642E+01   -0.51679E-01  5760   0.614E-01    0.304E+01
DAV: 119    -0.360587754112E+04   -0.76577E-01   -0.15669E-01  5760   0.301E-01    0.311E+01
DAV: 120    -0.360579230445E+04    0.85237E-01   -0.12292E-01  5760   0.131E-01    0.310E+01
DAV: 121    -0.360565787755E+04    0.13443E+00   -0.43373E-02  5888   0.869E-02    0.309E+01
DAV: 122    -0.360377647679E+04    0.18814E+01   -0.34694E+00  5888   0.700E-01    0.209E+01
DAV: 123    -0.360278979448E+04    0.98668E+00   -0.20134E+00  5376   0.489E-01    0.215E+01
DAV: 124    -0.360174282029E+04    0.10470E+01   -0.16133E+00  5760   0.330E-01    0.221E+01
DAV: 125    -0.360159343680E+04    0.14938E+00   -0.21508E-01  6144   0.132E-01    0.222E+01
DAV: 126    -0.360192296314E+04   -0.32953E+00   -0.23751E-01  5888   0.178E-01    0.223E+01
DAV: 127    -0.360025315284E+04    0.16698E+01   -0.88451E+00  5632   0.855E-01    0.224E+01
DAV: 128    -0.359862129348E+04    0.16319E+01   -0.14103E+00  5760   0.658E-01    0.170E+01
DAV: 129    -0.359315249879E+04    0.54688E+01   -0.30323E+00  6016   0.676E-01    0.144E+01
DAV: 130    -0.359078667131E+04    0.23658E+01   -0.10533E+00  6016   0.408E-01    0.145E+01
DAV: 131    -0.359230738351E+04   -0.15207E+01   -0.42088E-01  5760   0.304E-01    0.130E+01
DAV: 132    -0.359705927943E+04   -0.47519E+01   -0.40651E+00  6016   0.831E-01    0.116E+01
DAV: 133    -0.359751859725E+04   -0.45932E+00   -0.32591E-01  5632   0.419E-01    0.100E+01
DAV: 134    -0.359744843021E+04    0.70167E-01   -0.27652E+00  6016   0.647E-01    0.127E+01
DAV: 135    -0.359766792868E+04   -0.21950E+00   -0.64093E-02  6016   0.193E-01    0.126E+01
DAV: 136    -0.359738764004E+04    0.28029E+00   -0.11338E-01  6144   0.166E-01    0.126E+01
DAV: 137    -0.359728790718E+04    0.99733E-01   -0.42515E-01  6144   0.466E-01    0.125E+01
DAV: 138    -0.359742238405E+04   -0.13448E+00   -0.22508E-01  6016   0.255E-01    0.118E+01
DAV: 139    -0.359749656467E+04   -0.74181E-01   -0.34358E-02  6144   0.119E-01    0.121E+01
DAV: 140    -0.359765458699E+04   -0.15802E+00   -0.28590E-02  5888   0.892E-02    0.122E+01
DAV: 141    -0.359787861519E+04   -0.22403E+00   -0.56761E-02  5888   0.114E-01    0.123E+01
DAV: 142    -0.359889241160E+04   -0.10138E+01   -0.65973E+00  6144   0.110E+00    0.123E+01
DAV: 143    -0.359804121364E+04    0.85120E+00   -0.39058E-01  5888   0.435E-01    0.127E+01
DAV: 144    -0.359810913114E+04   -0.67917E-01   -0.19518E-02  6016   0.112E-01    0.128E+01
DAV: 145    -0.359681203572E+04    0.12971E+01   -0.58563E-01  6016   0.417E-01    0.121E+01
DAV: 146    -0.359605284189E+04    0.75919E+00   -0.21073E-01  6016   0.323E-01    0.122E+01
DAV: 147    -0.359539211562E+04    0.66073E+00   -0.19789E+00  5888   0.553E-01    0.151E+01
DAV: 148    -0.359446854155E+04    0.92357E+00   -0.27071E-01  6016   0.273E-01    0.147E+01
DAV: 149    -0.359443902144E+04    0.29520E-01   -0.10274E-02  6272   0.787E-02    0.147E+01
DAV: 150    -0.359436273446E+04    0.76287E-01   -0.39259E-02  6400   0.896E-02    0.146E+01
DAV: 151    -0.359364732363E+04    0.71541E+00   -0.30069E-01  7040   0.251E-01    0.142E+01
DAV: 152    -0.359955861529E+04   -0.59113E+01   -0.10059E+01  6144   0.154E+00    0.134E+01
DAV: 153    -0.360050081158E+04   -0.94220E+00   -0.42498E+00  6144   0.800E-01    0.124E+01
DAV: 154    -0.360115248033E+04   -0.65167E+00   -0.75031E-01  5760   0.499E-01    0.109E+01
DAV: 155    -0.360170804618E+04   -0.55557E+00   -0.72115E-01  6016   0.427E-01    0.104E+01
DAV: 156    -0.360186758423E+04   -0.15954E+00   -0.42765E-01  5760   0.312E-01    0.107E+01
DAV: 157    -0.360173825437E+04    0.12933E+00   -0.32649E-01  5888   0.297E-01    0.101E+01
DAV: 158    -0.360203921566E+04   -0.30096E+00   -0.11267E-01  5888   0.273E-01    0.994E+00
DAV: 159    -0.360204273697E+04   -0.35213E-02   -0.66809E-03  5888   0.506E-02    0.994E+00
DAV: 160    -0.360205488865E+04   -0.12152E-01   -0.12965E-03  6272   0.250E-02    0.994E+00
DAV: 161    -0.360206916763E+04   -0.14279E-01   -0.67889E-03  6272   0.422E-02    0.996E+00
DAV: 162    -0.360171315257E+04    0.35602E+00   -0.22300E+00  6272   0.106E+00    0.106E+01
DAV: 163    -0.360220886481E+04   -0.49571E+00   -0.26994E-01  5632   0.469E-01    0.989E+00
DAV: 164    -0.360214939070E+04    0.59474E-01   -0.98402E-02  6144   0.282E-01    0.977E+00
DAV: 165    -0.360190702923E+04    0.24236E+00   -0.15874E-01  6016   0.225E-01    0.993E+00
DAV: 166    -0.360188079858E+04    0.26231E-01   -0.18013E-02  6144   0.821E-02    0.998E+00
DAV: 167    -0.360217135635E+04   -0.29056E+00   -0.18311E-01  5888   0.294E-01    0.971E+00
DAV: 168    -0.360200367434E+04    0.16768E+00   -0.12626E-01  6272   0.204E-01    0.994E+00
DAV: 169    -0.360196438311E+04    0.39291E-01   -0.90369E-02  6144   0.183E-01    0.991E+00
DAV: 170    -0.360201027853E+04   -0.45895E-01   -0.13091E-02  5760   0.760E-02    0.984E+00
DAV: 171    -0.360210117211E+04   -0.90894E-01   -0.24037E-02  6144   0.694E-02    0.969E+00
DAV: 172    -0.360223071720E+04   -0.12955E+00   -0.50626E+00  6144   0.106E+00    0.105E+01
DAV: 173    -0.360262797608E+04   -0.39726E+00   -0.26708E-01  5760   0.358E-01    0.122E+01
DAV: 174    -0.360275870322E+04   -0.13073E+00   -0.11231E-01  6016   0.219E-01    0.117E+01
DAV: 175    -0.360299056624E+04   -0.23186E+00   -0.91800E-01  6400   0.645E-01    0.131E+01
DAV: 176    -0.360283087059E+04    0.15970E+00   -0.50006E+00  5888   0.556E-01    0.810E+00
DAV: 177    -0.360285199083E+04   -0.21120E-01   -0.33655E-01  5888   0.692E-01    0.698E+00
DAV: 178    -0.360286430576E+04   -0.12315E-01   -0.22318E-01  5888   0.271E-01    0.633E+00
DAV: 179    -0.360290718688E+04   -0.42881E-01   -0.13301E-01  5888   0.190E-01    0.601E+00
DAV: 180    -0.360290260287E+04    0.45840E-02   -0.10473E-01  6144   0.212E-01    0.609E+00
DAV: 181    -0.360289988377E+04    0.27191E-02   -0.46754E-02  6144   0.133E-01    0.625E+00
DAV: 182    -0.360289619587E+04    0.36879E-02   -0.21759E-01  6400   0.353E-01    0.676E+00
DAV: 183    -0.360280664850E+04    0.89547E-01   -0.12571E-01  6656   0.259E-01    0.708E+00
DAV: 184    -0.360280964683E+04   -0.29983E-02   -0.85972E-03  5632   0.718E-02    0.710E+00
DAV: 185    -0.360280898029E+04    0.66654E-03   -0.21316E-04  6656   0.132E-02    0.711E+00
DAV: 186    -0.360280628821E+04    0.26921E-02   -0.26787E-03  6656   0.305E-02    0.715E+00
DAV: 187    -0.360268363188E+04    0.12266E+00   -0.32221E-01  6016   0.315E-01    0.774E+00
DAV: 188    -0.360258410327E+04    0.99529E-01   -0.16173E-01  5888   0.337E-01    0.758E+00
DAV: 189    -0.360255168993E+04    0.32413E-01   -0.24592E-01  5888   0.261E-01    0.717E+00
DAV: 190    -0.360252123615E+04    0.30454E-01   -0.19290E-01  6400   0.249E-01    0.681E+00
DAV: 191    -0.360256011219E+04   -0.38876E-01   -0.41651E-02  6144   0.124E-01    0.653E+00
DAV: 192    -0.360195909488E+04    0.60102E+00   -0.15617E+00  6016   0.758E-01    0.793E+00
DAV: 193    -0.360217735288E+04   -0.21826E+00   -0.20121E-01  5760   0.415E-01    0.814E+00
DAV: 194    -0.360216523361E+04    0.12119E-01   -0.10987E-01  6400   0.344E-01    0.829E+00
DAV: 195    -0.360220645564E+04   -0.41222E-01   -0.26074E-02  6144   0.132E-01    0.831E+00
DAV: 196    -0.360216159375E+04    0.44862E-01   -0.33642E-02  6272   0.158E-01    0.895E+00
DAV: 197    -0.360228678113E+04   -0.12519E+00   -0.70955E-01  6144   0.103E+00    0.696E+00
DAV: 198    -0.360235288715E+04   -0.66106E-01   -0.26684E-01  5888   0.445E-01    0.724E+00
DAV: 199    -0.360221743482E+04    0.13545E+00   -0.18346E-01  6400   0.351E-01    0.782E+00
DAV: 200    -0.360195724777E+04    0.26019E+00   -0.43571E-01  6400   0.468E-01    0.885E+00
DAV: 201    -0.360185578368E+04    0.10146E+00   -0.15879E-01  6912   0.363E-01    0.921E+00
DAV: 202    -0.360185935299E+04   -0.35693E-02   -0.36999E-02  5632   0.193E-01    0.942E+00
DAV: 203    -0.360183657250E+04    0.22780E-01   -0.20456E-02  6400   0.167E-01    0.937E+00
DAV: 204    -0.360184090975E+04   -0.43373E-02   -0.59778E-03  5888   0.705E-02    0.937E+00
DAV: 205    -0.360184412981E+04   -0.32201E-02   -0.40985E-03  5888   0.415E-02    0.947E+00
DAV: 206    -0.360184408542E+04    0.44390E-04   -0.15773E-02  6144   0.801E-02    0.903E+00
DAV: 207    -0.360193139971E+04   -0.87314E-01   -0.26963E-01  6144   0.400E-01    0.957E+00
DAV: 208    -0.360199834836E+04   -0.66949E-01   -0.35508E-02  6144   0.222E-01    0.948E+00
DAV: 209    -0.360206479592E+04   -0.66448E-01   -0.49912E-02  6272   0.254E-01    0.945E+00
DAV: 210    -0.360209012334E+04   -0.25327E-01   -0.15153E-01  6528   0.212E-01    0.954E+00
DAV: 211    -0.360211343626E+04   -0.23313E-01   -0.14869E-01  6528   0.165E-01    0.960E+00
DAV: 212    -0.360213864475E+04   -0.25208E-01   -0.33036E-02  5760   0.270E-01    0.945E+00
DAV: 213    -0.360213884764E+04   -0.20289E-03   -0.33281E-02  6144   0.756E-02    0.942E+00
DAV: 214    -0.360214035881E+04   -0.15112E-02   -0.20684E-02  6528   0.494E-02    0.941E+00
DAV: 215    -0.360213551348E+04    0.48453E-02   -0.37319E-02  6272   0.794E-02    0.940E+00
DAV: 216    -0.360212695892E+04    0.85546E-02   -0.98660E-02  6400   0.117E-01    0.939E+00
DAV: 217    -0.360277309750E+04   -0.64614E+00   -0.41507E+00  6016   0.166E+00    0.931E+00
DAV: 218    -0.360214385285E+04    0.62924E+00   -0.49647E+00  5760   0.788E-01    0.800E+00
DAV: 219    -0.360200733235E+04    0.13652E+00   -0.19446E-01  6016   0.252E-01    0.865E+00
DAV: 220    -0.360068700878E+04    0.13203E+01   -0.18155E+00  5760   0.550E-01    0.991E+00
DAV: 221    -0.360069006233E+04   -0.30536E-02   -0.74058E-02  6016   0.191E-01    0.993E+00
DAV: 222    -0.360099720317E+04   -0.30714E+00   -0.12125E-01  5888   0.187E-01    0.984E+00
DAV: 223    -0.360161686216E+04   -0.61966E+00   -0.47667E+00  6656   0.751E-01    0.111E+01
DAV: 224    -0.360180425239E+04   -0.18739E+00   -0.67250E-02  5760   0.210E-01    0.110E+01
DAV: 225    -0.360201967667E+04   -0.21542E+00   -0.51482E-02  6400   0.134E-01    0.111E+01
DAV: 226    -0.360201496378E+04    0.47129E-02   -0.65542E-03  5760   0.544E-02    0.110E+01
DAV: 227    -0.360106006552E+04    0.95490E+00   -0.93065E+00  6528   0.152E+00    0.934E+00
DAV: 228    -0.360062688075E+04    0.43318E+00   -0.41545E-01  6528   0.433E-01    0.970E+00
DAV: 229    -0.360052972657E+04    0.97154E-01   -0.38283E-02  6272   0.139E-01    0.944E+00
DAV: 230    -0.360058030349E+04   -0.50577E-01   -0.56658E-03  5888   0.517E-02    0.964E+00
DAV: 231    -0.360121590562E+04   -0.63560E+00   -0.17742E-01  5888   0.199E-01    0.894E+00
DAV: 232    -0.360185764780E+04   -0.64174E+00   -0.40278E-01  6272   0.523E-01    0.797E+00
DAV: 233    -0.360194499657E+04   -0.87349E-01   -0.24807E-01  5888   0.444E-01    0.785E+00
DAV: 234    -0.360205422368E+04   -0.10923E+00   -0.56670E-02  6400   0.222E-01    0.777E+00
DAV: 235    -0.360205642315E+04   -0.21995E-02   -0.91060E-03  5888   0.740E-02    0.777E+00
DAV: 236    -0.360199012723E+04    0.66296E-01   -0.44368E-03  5760   0.412E-02    0.792E+00
DAV: 237    -0.360273609887E+04   -0.74597E+00   -0.18613E+00  5632   0.107E+00    0.614E+00
DAV: 238    -0.360262930357E+04    0.10680E+00   -0.45372E-01  5760   0.425E-01    0.667E+00
DAV: 239    -0.360227576194E+04    0.35354E+00   -0.10339E+00  5632   0.392E-01    0.677E+00
DAV: 240    -0.360163873376E+04    0.63703E+00   -0.17819E+00  6016   0.407E-01    0.708E+00
DAV: 241    -0.360121851307E+04    0.42022E+00   -0.21842E-01  5760   0.287E-01    0.704E+00
DAV: 242    -0.360101682597E+04    0.20169E+00   -0.18356E+00  6144   0.635E-01    0.118E+01
DAV: 243    -0.360130224015E+04   -0.28541E+00   -0.13143E+00  6144   0.108E+00    0.663E+00
DAV: 244    -0.360162820522E+04   -0.32597E+00   -0.26141E-01  6016   0.453E-01    0.663E+00
DAV: 245    -0.360165990134E+04   -0.31696E-01   -0.88177E-01  5760   0.339E-01    0.734E+00
DAV: 246    -0.360151973902E+04    0.14016E+00   -0.93343E-02  6016   0.212E-01    0.775E+00
DAV: 247    -0.360161007912E+04   -0.90340E-01   -0.70891E-01  6272   0.596E-01    0.569E+00
DAV: 248    -0.360192785005E+04   -0.31777E+00   -0.19381E-01  5888   0.250E-01    0.818E+00
DAV: 249    -0.360194369784E+04   -0.15848E-01   -0.49791E-02  5760   0.166E-01    0.821E+00
DAV: 250    -0.360191518922E+04    0.28509E-01   -0.18236E-02  6400   0.633E-02    0.820E+00
DAV: 251    -0.360181870226E+04    0.96487E-01   -0.43508E-02  6528   0.131E-01    0.790E+00
DAV: 252    -0.360201722629E+04   -0.19852E+00   -0.34922E+00  6272   0.563E-01    0.698E+00
DAV: 253    -0.360191656875E+04    0.10066E+00   -0.18949E-01  5760   0.258E-01    0.734E+00
DAV: 254    -0.360207565797E+04   -0.15909E+00   -0.18265E-01  5888   0.207E-01    0.710E+00
DAV: 255    -0.360209568597E+04   -0.20028E-01   -0.74902E-01  6272   0.410E-01    0.735E+00
DAV: 256    -0.360204275612E+04    0.52930E-01   -0.12622E-01  6144   0.140E-01    0.781E+00
DAV: 257    -0.360205204681E+04   -0.92907E-02   -0.56100E-02  5888   0.615E-02    0.790E+00
DAV: 258    -0.360202569705E+04    0.26350E-01   -0.24843E-02  6272   0.439E-02    0.803E+00
DAV: 259    -0.360202750674E+04   -0.18097E-02   -0.71431E-04  5632   0.276E-02    0.803E+00
DAV: 260    -0.360201975754E+04    0.77492E-02   -0.25089E-04  6144   0.177E-02    0.806E+00
DAV: 261    -0.360206492817E+04   -0.45171E-01   -0.70211E-03  5760   0.117E-01    0.784E+00
DAV: 262    -0.360307092778E+04   -0.10060E+01   -0.29039E+00  6144   0.126E+00    0.131E+01
DAV: 263    -0.360305431981E+04    0.16608E-01   -0.18392E-01  5888   0.300E-01    0.129E+01
DAV: 264    -0.360308094791E+04   -0.26628E-01   -0.49740E-02  5888   0.109E-01    0.126E+01
DAV: 265    -0.360304742665E+04    0.33521E-01   -0.47882E-02  6400   0.138E-01    0.123E+01
DAV: 266    -0.360297462001E+04    0.72807E-01   -0.23950E-02  6016   0.152E-01    0.122E+01
DAV: 267    -0.360281094475E+04    0.16368E+00   -0.20250E-01  6016   0.213E-01    0.123E+01
DAV: 268    -0.360274764645E+04    0.63298E-01   -0.80509E-02  6016   0.234E-01    0.718E+00
DAV: 269    -0.360286083004E+04   -0.11318E+00   -0.48996E-02  5760   0.200E-01    0.111E+01
DAV: 270    -0.360277664135E+04    0.84189E-01   -0.94366E-02  5888   0.233E-01    0.529E+00
DAV: 271    -0.360287805556E+04   -0.10141E+00   -0.14139E-01  6144   0.222E-01    0.770E+00
DAV: 272    -0.360303951619E+04   -0.16146E+00   -0.11159E-01  5632   0.262E-01    0.109E+01
DAV: 273    -0.360299159921E+04    0.47917E-01   -0.20277E-02  5632   0.132E-01    0.108E+01
DAV: 274    -0.360298377003E+04    0.78292E-02   -0.11780E-03  6528   0.241E-02    0.108E+01
DAV: 275    -0.360299646492E+04   -0.12695E-01   -0.11165E-03  6016   0.259E-02    0.109E+01
DAV: 276    -0.360297405471E+04    0.22410E-01   -0.62388E-03  5760   0.528E-02    0.107E+01
DAV: 277    -0.360283991337E+04    0.13414E+00   -0.24023E-01  6144   0.341E-01    0.101E+01
DAV: 278    -0.360287263848E+04   -0.32725E-01   -0.65906E-02  5632   0.156E-01    0.851E+00
DAV: 279    -0.360286629749E+04    0.63410E-02   -0.12293E-01  6016   0.261E-01    0.470E+00
DAV: 280    -0.360290915751E+04   -0.42860E-01   -0.46136E-02  5632   0.179E-01    0.470E+00
DAV: 281    -0.360290473517E+04    0.44223E-02   -0.25961E-02  6272   0.109E-01    0.465E+00
DAV: 282    -0.360295413624E+04   -0.49401E-01   -0.73080E-01  6016   0.285E-01    0.397E+00
DAV: 283    -0.360294577562E+04    0.83606E-02   -0.54135E-01  6144   0.203E-01    0.405E+00
DAV: 284    -0.360314687322E+04   -0.20110E+00   -0.73219E-01  6656   0.500E-01    0.114E+01
DAV: 285    -0.360317370909E+04   -0.26836E-01   -0.17877E-01  5888   0.257E-01    0.112E+01
DAV: 286    -0.360326537035E+04   -0.91661E-01   -0.28335E-02  5632   0.142E-01    0.111E+01
DAV: 287    -0.360269305216E+04    0.57232E+00   -0.10117E+01  6272   0.194E+00    0.804E+00
DAV: 288    -0.360282926796E+04   -0.13622E+00   -0.60518E-01  6016   0.644E-01    0.401E+00
DAV: 289    -0.360294408496E+04   -0.11482E+00   -0.13233E-01  6144   0.253E-01    0.327E+00
DAV: 290    -0.360300665150E+04   -0.62567E-01   -0.15542E-01  5760   0.244E-01    0.264E+00
DAV: 291    -0.360301633879E+04   -0.96873E-02   -0.54318E-02  6528   0.115E-01    0.269E+00
DAV: 292    -0.360301085990E+04    0.54789E-02   -0.18538E-02  6528   0.127E-01    0.260E+00
DAV: 293    -0.360301519824E+04   -0.43383E-02   -0.11183E-01  6016   0.198E-01    0.318E+00
DAV: 294    -0.360301217634E+04    0.30219E-02   -0.14818E-02  5888   0.105E-01    0.261E+00
DAV: 295    -0.360302533167E+04   -0.13155E-01   -0.38715E-02  6144   0.139E-01    0.278E+00
DAV: 296    -0.360304414503E+04   -0.18813E-01   -0.58270E-02  6272   0.156E-01    0.598E+00
DAV: 297    -0.360373781641E+04   -0.69367E+00   -0.74138E-01  6400   0.973E-01    0.104E+01
DAV: 298    -0.360376106082E+04   -0.23244E-01   -0.98068E-02  5632   0.260E-01    0.104E+01
DAV: 299    -0.360372692258E+04    0.34138E-01   -0.92098E-03  6272   0.792E-02    0.104E+01
DAV: 300    -0.360366050288E+04    0.66420E-01   -0.13455E-02  6016   0.113E-01    0.103E+01
DAV: 301    -0.360350056590E+04    0.15994E+00   -0.65676E-02  6656   0.264E-01    0.101E+01
DAV: 302    -0.360341501418E+04    0.85552E-01   -0.41011E-02  6272   0.223E-01    0.994E+00
DAV: 303    -0.360332872300E+04    0.86291E-01   -0.22724E-02  6016   0.155E-01    0.982E+00
DAV: 304    -0.360326770814E+04    0.61015E-01   -0.98283E-03  6784   0.109E-01    0.973E+00
DAV: 305    -0.360318910389E+04    0.78604E-01   -0.14596E-02  6528   0.129E-01    0.957E+00
DAV: 306    -0.360307030849E+04    0.11880E+00   -0.44479E-02  6272   0.209E-01    0.784E+00
DAV: 307    -0.360306664671E+04    0.36618E-02   -0.11581E-02  6144   0.770E-02    0.647E+00
DAV: 308    -0.360307401026E+04   -0.73635E-02   -0.15590E-02  6272   0.629E-02    0.545E+00
DAV: 309    -0.360310651805E+04   -0.32508E-01   -0.25171E-02  6016   0.819E-02    0.717E+00
DAV: 310    -0.360308976650E+04    0.16752E-01   -0.53800E-03  5760   0.408E-02    0.685E+00
DAV: 311    -0.360309567725E+04   -0.59107E-02   -0.11180E-02  6144   0.318E-02    0.714E+00
DAV: 312    -0.360316241214E+04   -0.66735E-01   -0.28913E-02  6272   0.154E-01    0.919E+00
DAV: 313    -0.360305776619E+04    0.10465E+00   -0.47931E-02  6016   0.182E-01    0.597E+00
DAV: 314    -0.360306114149E+04   -0.33753E-02   -0.69685E-02  6144   0.109E-01    0.308E+00
DAV: 315    -0.360311788261E+04   -0.56741E-01   -0.31162E-02  5888   0.131E-01    0.650E+00
DAV: 316    -0.360308520361E+04    0.32679E-01   -0.35303E-02  5760   0.749E-02    0.520E+00
DAV: 317    -0.360309284421E+04   -0.76406E-02   -0.56221E-02  6144   0.613E-02    0.580E+00
DAV: 318    -0.360309322435E+04   -0.38015E-03   -0.15148E-02  5888   0.381E-02    0.605E+00
DAV: 319    -0.360309112385E+04    0.21005E-02   -0.12718E-02  6016   0.269E-02    0.615E+00
DAV: 320    -0.360309011166E+04    0.10122E-02   -0.13030E-02  6528   0.215E-02    0.626E+00
DAV: 321    -0.360308927093E+04    0.84072E-03   -0.32406E-04  5632   0.186E-02    0.625E+00
[...]
DAV:   3    -0.360531714287E+04    0.96654E-01   -0.37345E-01  5760   0.242E-01    0.530E-01
DAV:   4    -0.360535725494E+04   -0.40112E-01   -0.11084E-02  5248   0.884E-02    0.410E-01
DAV:   5    -0.360536254723E+04   -0.52923E-02   -0.25654E-03  5248   0.504E-02    0.162E-01
DAV:   6    -0.360536249151E+04    0.55717E-04   -0.39575E-05  5632   0.609E-03    0.131E-01
DAV:   7    -0.360536247715E+04    0.14363E-04   -0.12102E-05  6272   0.248E-03    0.491E-02
DAV:   8    -0.360536252108E+04   -0.43926E-04   -0.17605E-05  5760   0.380E-03    0.472E-02
DAV:   9    -0.360536253261E+04   -0.11530E-04   -0.13467E-05  5632   0.413E-03    0.935E-03
DAV:  10    -0.360536253386E+04   -0.12513E-05   -0.46532E-07  4736   0.625E-04    0.761E-03
DAV:  11    -0.360536253409E+04   -0.23466E-06   -0.26871E-07  3840   0.323E-04
 augmentation electrons   1804.93231065895     
 soft         electrons  0.000000000000000E+000
 total        electrons   1804.93231065895     
 augmentation electrons -4.112870100766441E-002
 soft         electrons  0.000000000000000E+000
 total        electrons -4.112870100766441E-002
 augmentation electrons   1955.91909685595     
 soft         electrons  0.000000000000000E+000
 total        electrons   1955.91909685595     
 augmentation electrons   1899.29606491395     
 soft         electrons  0.000000000000000E+000
 total        electrons   1899.29606491395     
 augmentation electrons   56.2923372118183     
 soft         electrons   1748.63995157171     
 total        electrons   1804.93228878353     
 augmentation electrons   20.2160642153571     
 soft         electrons   1748.63995157171     
 total        electrons   32.9588661085783     
 translations:           0           1           0
 144 F= -.36429481E+04 E0= -.36429373E+04  d E =-.110324E-02  mag=    33.0000
 curvature:  -1.59 expect dE=-0.477E-02 dE for cont linesearch -0.233E-04
 ZBRENT: increasing intervall
 opt :   0.5669  next Energy= -3642.948104 (dE=-0.109E-02)
 bond charge predicted
       N       E                     dE             d eps       ncg     rms          rms(c)
DAV:   1    -0.360536230053E+04    0.23333E-03   -0.57908E-02  5376   0.279E-01    0.270E-01
DAV:   2    -0.360536867227E+04   -0.63717E-02   -0.15429E-02  6272   0.101E-01    0.232E+00
DAV:   3    -0.360535721352E+04    0.11459E-01   -0.10739E-02  5504   0.954E-02    0.283E-01
DAV:   4    -0.360536168614E+04   -0.44726E-02   -0.19015E-03  5504   0.344E-02    0.256E-01
DAV:   5    -0.360536244859E+04   -0.76245E-03   -0.60950E-04  5376   0.242E-02    0.170E-01
DAV:   6    -0.360536242732E+04    0.21266E-04   -0.41535E-05  5632   0.772E-03    0.134E-01
DAV:   7    -0.360536239652E+04    0.30803E-04   -0.86859E-05  5888   0.574E-03    0.113E-01
DAV:   8    -0.360536243377E+04   -0.37251E-04   -0.38086E-05  5376   0.744E-03    0.523E-02
DAV:   9    -0.360536243380E+04   -0.28202E-07   -0.54338E-06  5248   0.141E-03
 augmentation electrons   1804.93388049814     
 soft         electrons  0.000000000000000E+000
 total        electrons   1804.93388049814     
 augmentation electrons -4.108566272496132E-002
 soft         electrons  0.000000000000000E+000
 total        electrons -4.108566272496132E-002
 augmentation electrons   1956.95651763938     
 soft         electrons  0.000000000000000E+000
 total        electrons   1956.95651763938     
 augmentation electrons   1900.33348569738     
 soft         electrons  0.000000000000000E+000
 total        electrons   1900.33348569738     
 augmentation electrons   56.2939804549505     
 soft         electrons   1748.63987827430     
 total        electrons   1804.93385872925     
 augmentation electrons   20.2161005993768     
 soft         electrons   1748.63987827430     
 total        electrons   32.9589092174224     
 translations:           0           1           0
 145 F= -.36429482E+04 E0= -.36429374E+04  d E =-.119579E-02  mag=    33.0000
 curvature:   0.58 expect dE= 0.287E-02 dE for cont linesearch  0.684E-05
 trial: gam= 1.11771 g(F)=  0.496E-02 g(S)=  0.000E+00 ort =-0.641E-03 (trialstep = 0.267E+00)
 search vector abs. value=  0.470E-01
 bond charge predicted
       N       E                     dE             d eps       ncg     rms          rms(c)
DAV:   1    -0.360536281405E+04   -0.38028E-03   -0.18232E-01  5504   0.496E-01    0.722E-01
DAV:   2    -0.360539545570E+04   -0.32642E-01   -0.91811E-02  6272   0.254E-01    0.370E+00
DAV:   3    -0.360535491909E+04    0.40537E-01   -0.43016E-02  5760   0.205E-01    0.136E+00
DAV:   4    -0.360535842238E+04   -0.35033E-02   -0.63249E-03  5888   0.479E-02    0.193E-01
DAV:   5    -0.360536295795E+04   -0.45356E-02   -0.21865E-03  5376   0.451E-02    0.282E-01
DAV:   6    -0.360536286692E+04    0.91024E-04   -0.23168E-04  5632   0.136E-02    0.719E-02
DAV:   7    -0.360536305708E+04   -0.19016E-03   -0.13908E-04  5888   0.102E-02    0.243E-01
DAV:   8    -0.360536291525E+04    0.14183E-03   -0.12524E-04  5760   0.964E-03    0.153E-02
DAV:   9    -0.360536300824E+04   -0.92987E-04   -0.32549E-05  5760   0.552E-03    0.679E-02
DAV:  10    -0.360536300096E+04    0.72788E-05   -0.14196E-05  5760   0.367E-03    0.109E-02
DAV:  11    -0.360536300747E+04   -0.65120E-05   -0.20451E-06  5248   0.161E-03    0.459E-03
DAV:  12    -0.360536300744E+04    0.26819E-07   -0.23707E-07  4480   0.402E-04
 augmentation electrons   1804.93666438547     
 soft         electrons  0.000000000000000E+000
 total        electrons   1804.93666438547     
 augmentation electrons -4.115438656039734E-002
 soft         electrons  0.000000000000000E+000
 total        electrons -4.115438656039734E-002
 augmentation electrons   1959.27991866219     
 soft         electrons  0.000000000000000E+000
 total        electrons   1959.27991866219     
 augmentation electrons   1902.65688672019     
 soft         electrons  0.000000000000000E+000
 total        electrons   1902.65688672019     
 augmentation electrons   56.2970076536779     
 soft         electrons   1748.63963499849     
 total        electrons   1804.93664265217     
 augmentation electrons   20.2157200335163     
 soft         electrons   1748.63963499849     
 total        electrons   32.9588405874233     
 translations:           0           1           0
 146 F= -.36429490E+04 E0= -.36429382E+04  d E =-.752770E-03  mag=    33.0000
 trial-energy change:   -0.000753  1 .order   -0.000756   -0.001130   -0.000382
 step:   0.4030(harm=  0.4030)  dis= 0.00182  next Energy= -3642.949060 (dE=-0.854E-03)
 bond charge predicted
       N       E                     dE             d eps       ncg     rms          rms(c)
DAV:   1    -0.360536290860E+04    0.98866E-04   -0.47432E-02  5504   0.253E-01    0.205E-01
DAV:   2    -0.360536772190E+04   -0.48133E-02   -0.25863E-02  6144   0.792E-02    0.266E+00
DAV:   3    -0.360535571972E+04    0.12002E-01   -0.24473E-02  5376   0.888E-02    0.153E-01
DAV:   4    -0.360536229046E+04   -0.65707E-02   -0.21559E-03  5120   0.417E-02    0.145E-01
DAV:   5    -0.360536307809E+04   -0.78763E-03   -0.45486E-04  5504   0.213E-02    0.233E-01
DAV:   6    -0.360536295235E+04    0.12574E-03   -0.97410E-05  5760   0.883E-03    0.234E-02
DAV:   7    -0.360536302598E+04   -0.73627E-04   -0.22617E-05  5632   0.456E-03    0.501E-02
DAV:   8    -0.360536303127E+04   -0.52846E-05   -0.75844E-06  5632   0.327E-03    0.216E-02
DAV:   9    -0.360536303164E+04   -0.37733E-06   -0.52587E-07  4864   0.498E-04
 augmentation electrons   1804.93815562049     
 soft         electrons  0.000000000000000E+000
 total        electrons   1804.93815562049     
 augmentation electrons -4.123921305511083E-002
 soft         electrons  0.000000000000000E+000
 total        electrons -4.123921305511083E-002
 augmentation electrons   1960.45852138842     
 soft         electrons  0.000000000000000E+000
 total        electrons   1960.45852138842     
 augmentation electrons   1903.83548944642     
 soft         electrons  0.000000000000000E+000
 total        electrons   1903.83548944642     
 augmentation electrons   56.2983790792435     
 soft         electrons   1748.63975483163     
 total        electrons   1804.93813391088     
 augmentation electrons   20.2156917054795     
 soft         electrons   1748.63975483163     
 total        electrons   32.9587558086458     
 translations:           0           1           0
 147 F= -.36429491E+04 E0= -.36429384E+04  d E =-.928359E-03  mag=    33.0000
 curvature:  -2.23 expect dE=-0.711E-02 dE for cont linesearch -0.972E-06
 trial: gam= 0.39171 g(F)=  0.318E-02 g(S)=  0.000E+00 ort = 0.143E-03 (trialstep = 0.294E+00)
 search vector abs. value=  0.105E-01
 bond charge predicted
       N       E                     dE             d eps       ncg     rms          rms(c)
DAV:   1    -0.360536390734E+04   -0.87607E-03   -0.54002E-02  5248   0.266E-01    0.768E-01
DAV:   2    -0.360540018230E+04   -0.36275E-01   -0.10194E-01  6272   0.255E-01    0.379E+00
DAV:   3    -0.360535591639E+04    0.44266E-01   -0.47590E-02  5760   0.210E-01    0.155E+00
DAV:   4    -0.360535814527E+04   -0.22289E-02   -0.55201E-03  5888   0.440E-02    0.264E-01
DAV:   5    -0.360536292810E+04   -0.47828E-02   -0.15157E-03  5504   0.375E-02    0.341E-01
DAV:   6    -0.360536326393E+04   -0.33583E-03   -0.40013E-04  5888   0.142E-02    0.179E-01
DAV:   7    -0.360536361416E+04   -0.35023E-03   -0.18715E-04  5504   0.159E-02    0.167E-01
DAV:   8    -0.360536355014E+04    0.64014E-04   -0.10224E-04  5760   0.719E-03    0.898E-02
DAV:   9    -0.360536359660E+04   -0.46461E-04   -0.33147E-05  5632   0.685E-03    0.579E-02
DAV:  10    -0.360536358936E+04    0.72482E-05   -0.51391E-06  5376   0.169E-03    0.341E-03
DAV:  11    -0.360536359809E+04   -0.87299E-05   -0.22990E-06  5248   0.166E-03    0.188E-03
DAV:  12    -0.360536359855E+04   -0.46715E-06   -0.23108E-07  3968   0.453E-04
 augmentation electrons   1804.94003423804     
 soft         electrons  0.000000000000000E+000
 total        electrons   1804.94003423804     
 augmentation electrons -4.110370368532152E-002
 soft         electrons  0.000000000000000E+000
 total        electrons -4.110370368532152E-002
 augmentation electrons   1962.13746869760     
 soft         electrons  0.000000000000000E+000
 total        electrons   1962.13746869760     
 augmentation electrons   1905.51443675560     
 soft         electrons  0.000000000000000E+000
 total        electrons   1905.51443675560     
 augmentation electrons   56.3003600090763     
 soft         electrons   1748.63965245693     
 total        electrons   1804.94001246600     
 augmentation electrons   20.2155928717204     
 soft         electrons   1748.63965245693     
 total        electrons   32.9588913202752     
 translations:           0           1           0
 148 F= -.36429497E+04 E0= -.36429389E+04  d E =-.586376E-03  mag=    33.0000
 trial-energy change:   -0.000586  1 .order   -0.000635   -0.000952   -0.000318
 step:   0.4416(harm=  0.4416)  dis= 0.00077  next Energy= -3642.949849 (dE=-0.715E-03)
 bond charge predicted
       N       E                     dE             d eps       ncg     rms          rms(c)
DAV:   1    -0.360536361440E+04   -0.16316E-04   -0.13414E-02  5760   0.133E-01    0.123E-01
DAV:   2    -0.360536533855E+04   -0.17241E-02   -0.61607E-03  6272   0.472E-02    0.157E+00
DAV:   3    -0.360536082582E+04    0.45127E-02   -0.59877E-03  5248   0.549E-02    0.968E-02
DAV:   4    -0.360536335936E+04   -0.25335E-02   -0.90490E-04  5120   0.269E-02    0.912E-02
DAV:   5    -0.360536366070E+04   -0.30134E-03   -0.16670E-04  5504   0.133E-02    0.138E-01
DAV:   6    -0.360536361669E+04    0.44008E-04   -0.29387E-05  5632   0.507E-03    0.238E-02
DAV:   7    -0.360536364011E+04   -0.23422E-04   -0.75822E-06  5376   0.244E-03    0.298E-02
DAV:   8    -0.360536364404E+04   -0.39223E-05   -0.34129E-06  5504   0.222E-03    0.118E-02
DAV:   9    -0.360536364414E+04   -0.10636E-06   -0.16742E-07  4608   0.279E-04
 augmentation electrons   1804.94099025155     
 soft         electrons  0.000000000000000E+000
 total        electrons   1804.94099025155     
 augmentation electrons -4.112634987303018E-002
 soft         electrons  0.000000000000000E+000
 total        electrons -4.112634987303018E-002
 augmentation electrons   1962.99907478589     
 soft         electrons  0.000000000000000E+000
 total        electrons   1962.99907478589     
 augmentation electrons   1906.37604284389     
 soft         electrons  0.000000000000000E+000
 total        electrons   1906.37604284389     
 augmentation electrons   56.3012001211875     
 soft         electrons   1748.63976832743     
 total        electrons   1804.94096844862     
 augmentation electrons   20.2156108429109     
 soft         electrons   1748.63976832743     
 total        electrons   32.9588686751660     
 translations:           0           1           0
 149 F= -.36429498E+04 E0= -.36429390E+04  d E =-.685548E-03  mag=    33.0000
 curvature:  -0.72 expect dE=-0.174E-02 dE for cont linesearch -0.187E-07
 trial: gam= 0.80388 g(F)=  0.244E-02 g(S)=  0.000E+00 ort =-0.166E-04 (trialstep = 0.323E+00)
 search vector abs. value=  0.920E-02
 bond charge predicted
       N       E                     dE             d eps       ncg     rms          rms(c)
DAV:   1    -0.360536405382E+04   -0.40979E-03   -0.54146E-02  5504   0.283E-01    0.453E-01
DAV:   2    -0.360538013289E+04   -0.16079E-01   -0.38757E-02  6144   0.158E-01    0.314E+00
DAV:   3    -0.360535614304E+04    0.23990E-01   -0.23294E-02  5632   0.143E-01    0.681E-01
DAV:   4    -0.360536209628E+04   -0.59532E-02   -0.35251E-03  5760   0.406E-02    0.328E-01
DAV:   5    -0.360536412465E+04   -0.20284E-02   -0.12763E-03  5376   0.351E-02    0.149E-01
DAV:   6    -0.360536410704E+04    0.17613E-04   -0.44494E-05  5632   0.732E-03    0.149E-01
DAV:   7    -0.360536406150E+04    0.45544E-04   -0.11010E-04  5760   0.718E-03    0.128E-01
DAV:   8    -0.360536410794E+04   -0.46437E-04   -0.41477E-05  5632   0.798E-03    0.104E-01
DAV:   9    -0.360536408656E+04    0.21376E-04   -0.17692E-05  5504   0.262E-03    0.843E-03
DAV:  10    -0.360536411186E+04   -0.25304E-04   -0.55847E-06  5376   0.283E-03    0.343E-03
DAV:  11    -0.360536411261E+04   -0.75193E-06   -0.29065E-07  4352   0.642E-04
 augmentation electrons   1804.94271697385     
 soft         electrons  0.000000000000000E+000
 total        electrons   1804.94271697385     
 augmentation electrons -4.114281666268929E-002
 soft         electrons  0.000000000000000E+000
 total        electrons -4.114281666268929E-002
 augmentation electrons   1964.89195853165     
 soft         electrons  0.000000000000000E+000
 total        electrons   1964.89195853165     
 augmentation electrons   1908.26892658965     
 soft         electrons  0.000000000000000E+000
 total        electrons   1908.26892658965     
 augmentation electrons   56.3028469717408     
 soft         electrons   1748.63984812785     
 total        electrons   1804.94269509959     
 augmentation electrons   20.2154108887816     
 soft         electrons   1748.63984812785     
 total        electrons   32.9588521733186     
 translations:           0           1           0
 150 F= -.36429504E+04 E0= -.36429396E+04  d E =-.576418E-03  mag=    33.0000
 trial-energy change:   -0.000576  1 .order   -0.000567   -0.000784   -0.000350
 step:   0.5384(harm=  0.5845)  dis= 0.00084  next Energy= -3642.950515 (dE=-0.695E-03)
 bond charge predicted
       N       E                     dE             d eps       ncg     rms          rms(c)
DAV:   1    -0.360536410321E+04    0.86521E-05   -0.23782E-02  5504   0.188E-01    0.122E-01
DAV:   2    -0.360536560411E+04   -0.15009E-02   -0.55563E-03  6144   0.500E-02    0.143E+00
DAV:   3    -0.360536181105E+04    0.37931E-02   -0.49478E-03  5376   0.515E-02    0.793E-02
DAV:   4    -0.360536397855E+04   -0.21675E-02   -0.77643E-04  5120   0.255E-02    0.787E-02
DAV:   5    -0.360536421171E+04   -0.23316E-03   -0.14561E-04  5504   0.122E-02    0.150E-01
DAV:   6    -0.360536415773E+04    0.53984E-04   -0.48595E-05  5760   0.611E-03    0.113E-02
DAV:   7    -0.360536419176E+04   -0.34028E-04   -0.86738E-06  5632   0.325E-03    0.368E-02
DAV:   8    -0.360536418992E+04    0.18417E-05   -0.29567E-06  5248   0.188E-03    0.828E-03
DAV:   9    -0.360536419138E+04   -0.14592E-05   -0.30293E-07  4224   0.558E-04    0.141E-03
DAV:  10    -0.360536419174E+04   -0.36927E-06   -0.16156E-07  3968   0.429E-04
 augmentation electrons   1804.94395083884     
 soft         electrons  0.000000000000000E+000
 total        electrons   1804.94395083884     
 augmentation electrons -4.111775526458306E-002
 soft         electrons  0.000000000000000E+000
 total        electrons -4.111775526458306E-002
 augmentation electrons   1966.19901139678     
 soft         electrons  0.000000000000000E+000
 total        electrons   1966.19901139678     
 augmentation electrons   1909.57597945478     
 soft         electrons  0.000000000000000E+000
 total        electrons   1909.57597945478     
 augmentation electrons   56.3039533784492     
 soft         electrons   1748.63997553824     
 total        electrons   1804.94392891669     
 augmentation electrons   20.2153965159612     
 soft         electrons   1748.63997553824     
 total        electrons   32.9588772108266     
 translations:           0           1           0
 151 F= -.36429506E+04 E0= -.36429398E+04  d E =-.750531E-03  mag=    33.0000
 curvature:  -1.07 expect dE=-0.238E-02 dE for cont linesearch -0.447E-05
 trial: gam= 0.74398 g(F)=  0.222E-02 g(S)=  0.000E+00 ort = 0.196E-03 (trialstep = 0.366E+00)
 search vector abs. value=  0.760E-02
 bond charge predicted
       N       E                     dE             d eps       ncg     rms          rms(c)
DAV:   1    -0.360536441980E+04   -0.22842E-03   -0.63652E-02  5504   0.311E-01    0.110E-01
DAV:   2    -0.360536494848E+04   -0.52868E-03   -0.35096E-03  6144   0.511E-02    0.547E-01
DAV:   3    -0.360536433824E+04    0.61024E-03   -0.10071E-03  5376   0.279E-02    0.149E-01
DAV:   4    -0.360536470698E+04   -0.36874E-03   -0.20114E-04  5248   0.164E-02    0.348E-02
DAV:   5    -0.360536470695E+04    0.36322E-07   -0.30875E-05  5888   0.505E-03    0.809E-02
DAV:   6    -0.360536469646E+04    0.10491E-04   -0.43127E-05  5760   0.599E-03    0.718E-02
DAV:   7    -0.360536469753E+04   -0.10754E-05   -0.13463E-05  5376   0.411E-03    0.141E-02
DAV:   8    -0.360536470141E+04   -0.38787E-05   -0.89302E-07  4608   0.963E-04    0.241E-03
DAV:   9    -0.360536470262E+04   -0.12148E-05   -0.44860E-07  4224   0.814E-04    0.407E-03
DAV:  10    -0.360536470258E+04    0.47439E-07   -0.13673E-07  3584   0.254E-04
 augmentation electrons   1804.94660682574     
 soft         electrons  0.000000000000000E+000
 total        electrons   1804.94660682574     
 augmentation electrons -4.119032365754204E-002
 soft         electrons  0.000000000000000E+000
 total        electrons -4.119032365754204E-002
 augmentation electrons   1968.56658042551     
 soft         electrons  0.000000000000000E+000
 total        electrons   1968.56658042551     
 augmentation electrons   1911.94354848351     
 soft         electrons  0.000000000000000E+000
 total        electrons   1911.94354848351     
 augmentation electrons   56.3062774461271     
 soft         electrons   1748.64030734922     
 total        electrons   1804.94658479534     
 augmentation electrons   20.2152761360088     
 soft         electrons   1748.64030734922     
 total        electrons   32.9588045823961     
 translations:           0           1           0
 152 F= -.36429512E+04 E0= -.36429404E+04  d E =-.644008E-03  mag=    33.0000
 trial-energy change:   -0.000644  1 .order   -0.000523   -0.000866   -0.000180
 step:   0.4105(harm=  0.4627)  dis= 0.00083  next Energy= -3642.951225 (dE=-0.655E-03)
 reached required accuracy - stopping structural energy minimisation
 writing wavefunctions
