 ----------------------------------------------------
    OOO  PPPP  EEEEE N   N M   M PPPP
   O   O P   P E     NN  N MM MM P   P
   O   O PPPP  EEEEE N N N M M M PPPP   -- VERSION
   O   O P     E     N  NN M   M P
    OOO  P     EEEEE N   N M   M P
 ----------------------------------------------------
 running  512 mpi-ranks, with    1 threads/rank
 distrk:  each k-point on  512 cores,    1 groups
 distr:  one band on    4 cores,  128 groups
 vasp.6.3.2 27Jun22 (build Nov 12 2024 19:13:04) complex                        
  
 POSCAR found type information on POSCAR MnBrN C H 
 POSCAR found :  5 types and     636 ions
 scaLAPACK will be used
 LDA part: xc-table for Pade appr. of Perdew
 POSCAR, INCAR and KPOINTS ok, starting setup
 FFT: planning ... GRIDC
 FFT: planning ... GRID_SOFT
 FFT: planning ... GRID
 WAVECAR not read
 entering main loop
       N       E                     dE             d eps       ncg     rms          rms(c)
DAV:   1     0.989574309017E+04    0.98957E+04   -0.80694E+05  5376   0.120E+03
DAV:   2    -0.259463019150E+04   -0.12490E+05   -0.12052E+05  6272   0.260E+02
DAV:   3    -0.383491636141E+04   -0.12403E+04   -0.12304E+04  6400   0.875E+01
DAV:   4    -0.386758700010E+04   -0.32671E+02   -0.32460E+02  6528   0.161E+01
DAV:   5    -0.386861200623E+04   -0.10250E+01   -0.10238E+01  6656   0.271E+00    0.123E+02
DAV:   6    -0.379702288186E+04    0.71589E+02   -0.21498E+03  6784   0.345E+01    0.223E+02
DAV:   7    -0.358814289736E+04    0.20888E+03   -0.55561E+02  6400   0.342E+01    0.888E+01
DAV:   8    -0.361448779504E+04   -0.26345E+02   -0.58419E+01  6656   0.785E+00    0.465E+01
DAV:   9    -0.359541977739E+04    0.19068E+02   -0.47560E+01  6912   0.867E+00    0.336E+01
DAV:  10    -0.359980464816E+04   -0.43849E+01   -0.11122E+01  6016   0.315E+00    0.254E+01
DAV:  11    -0.360122943258E+04   -0.14248E+01   -0.22981E+00  5760   0.248E+00    0.130E+01
DAV:  12    -0.360099598519E+04    0.23345E+00   -0.16953E+00  6400   0.191E+00    0.593E+00
DAV:  13    -0.360081489003E+04    0.18110E+00   -0.78301E-01  6656   0.133E+00    0.251E+00
DAV:  14    -0.360075569616E+04    0.59194E-01   -0.34573E-01  6656   0.807E-01    0.124E+00
DAV:  15    -0.360076020920E+04   -0.45130E-02   -0.21460E-01  6528   0.714E-01    0.163E+00
DAV:  16    -0.360076846855E+04   -0.82594E-02   -0.96881E-02  6144   0.253E-01    0.156E+00
DAV:  17    -0.360075349403E+04    0.14975E-01   -0.42039E-02  6272   0.334E-01    0.756E-01
DAV:  18    -0.360075119173E+04    0.23023E-02   -0.18414E-02  6656   0.167E-01    0.335E-01
DAV:  19    -0.360075162041E+04   -0.42868E-03   -0.54303E-03  6272   0.732E-02    0.125E-01
DAV:  20    -0.360075171150E+04   -0.91089E-04   -0.10213E-03  5760   0.269E-02    0.141E-01
DAV:  21    -0.360075157252E+04    0.13898E-03   -0.24627E-04  6656   0.284E-02    0.844E-02
DAV:  22    -0.360075153151E+04    0.41013E-04   -0.28017E-04  6656   0.252E-02    0.544E-02
DAV:  23    -0.360075156083E+04   -0.29326E-04   -0.22073E-04  6784   0.230E-02    0.850E-02
DAV:  24    -0.360075154598E+04    0.14848E-04   -0.11494E-04  6144   0.138E-02    0.614E-02
DAV:  25    -0.360075153049E+04    0.15490E-04   -0.17810E-05  6656   0.584E-03    0.466E-02
DAV:  26    -0.360075152826E+04    0.22339E-05   -0.43581E-05  5632   0.811E-03    0.465E-02
DAV:  27    -0.360075153347E+04   -0.52119E-05   -0.31943E-05  6272   0.808E-03    0.439E-02
DAV:  28    -0.360075154195E+04   -0.84820E-05   -0.51502E-05  5632   0.723E-03    0.539E-02
DAV:  29    -0.360075152730E+04    0.14650E-04   -0.42649E-05  6144   0.115E-02    0.253E-02
DAV:  30    -0.360075151865E+04    0.86521E-05   -0.18396E-05  6528   0.667E-03    0.747E-03
DAV:  31    -0.360075151556E+04    0.30921E-05   -0.11527E-05  6784   0.486E-03    0.398E-03
DAV:  32    -0.360075151467E+04    0.88633E-06   -0.78068E-06  6656   0.386E-03
 augmentation electrons   1811.87870328433     
 soft         electrons  0.000000000000000E+000
 total        electrons   1811.87870328433     
 augmentation electrons -8.224881414166782E-002
 soft         electrons  0.000000000000000E+000
 total        electrons -8.224881414166782E-002
 augmentation electrons   1923.93918884376     
 soft         electrons  0.000000000000000E+000
 total        electrons   1923.93918884376     
 augmentation electrons   1866.42202897176     
 soft         electrons  0.000000000000000E+000
 total        electrons   1866.42202897176     
 augmentation electrons   54.7951603902699     
 soft         electrons   1757.08345667769     
 total        electrons   1811.87861706796     
 augmentation electrons   37.8241069823052     
 soft         electrons   1757.08345667769     
 total        electrons   59.9177129946932     
 translations:           0           1           0
   1 F= -.36386424E+04 E0= -.36386424E+04  d E =-.363864E+04  mag=    60.0000
 curvature:   0.00 expect dE= 0.000E+00 dE for cont linesearch  0.000E+00
 trial: gam= 0.00000 g(F)=  0.461E+00 g(S)=  0.000E+00 ort = 0.000E+00 (trialstep = 0.100E+01)
 search vector abs. value=  0.461E+00
 bond charge predicted
       N       E                     dE             d eps       ncg     rms          rms(c)
DAV:   1    -0.360096716866E+04   -0.21565E+00   -0.31399E+01  5120   0.300E+00    0.290E+00
DAV:   2    -0.360108744806E+04   -0.12028E+00   -0.14168E+00  6144   0.735E-01    0.172E+00
DAV:   3    -0.360108316788E+04    0.42802E-02   -0.29978E-02  6400   0.132E-01    0.940E-01
DAV:   4    -0.360108102220E+04    0.21457E-02   -0.33419E-03  6528   0.380E-02    0.625E-01
DAV:   5    -0.360107922530E+04    0.17969E-02   -0.94761E-03  6656   0.692E-02    0.202E-01
DAV:   6    -0.360107928653E+04   -0.61230E-04   -0.17752E-03  6144   0.320E-02    0.587E-02
DAV:   7    -0.360107928028E+04    0.62489E-05   -0.80761E-05  6272   0.723E-03    0.338E-02
DAV:   8    -0.360107927547E+04    0.48152E-05   -0.86488E-06  6528   0.339E-03    0.195E-02
DAV:   9    -0.360107927409E+04    0.13749E-05   -0.75627E-06  6016   0.278E-03    0.863E-03
DAV:  10    -0.360107927389E+04    0.20413E-06   -0.30776E-06  6272   0.166E-03
 augmentation electrons   1811.89535219252     
 soft         electrons  0.000000000000000E+000
 total        electrons   1811.89535219252     
 augmentation electrons -8.203075283393027E-002
 soft         electrons  0.000000000000000E+000
 total        electrons -8.203075283393027E-002
 augmentation electrons   1974.94223285631     
 soft         electrons  0.000000000000000E+000
 total        electrons   1974.94223285631     
 augmentation electrons   1917.42507298431     
 soft         electrons  0.000000000000000E+000
 total        electrons   1917.42507298431     
 augmentation electrons   54.8356254832386     
 soft         electrons   1757.05965400513     
 total        electrons   1811.89527948837     
 augmentation electrons   37.9067650082478     
 soft         electrons   1757.05965400513     
 total        electrons   59.9179323811407     
 translations:           0           1           0
   2 F= -.36389915E+04 E0= -.36389915E+04  d E =-.349157E+00  mag=    60.0000
 trial-energy change:   -0.349157  1 .order   -0.344531   -0.460943   -0.228119
 step:   1.8062(harm=  1.9798)  dis= 0.05218  next Energy= -3639.085889 (dE=-0.444E+00)
 bond charge predicted
       N       E                     dE             d eps       ncg     rms          rms(c)
DAV:   1    -0.360112141124E+04   -0.42137E-01   -0.20346E+01  5120   0.243E+00    0.229E+00
DAV:   2    -0.360119793887E+04   -0.76528E-01   -0.90121E-01  6144   0.581E-01    0.131E+00
DAV:   3    -0.360119514286E+04    0.27960E-02   -0.18481E-02  6400   0.105E-01    0.722E-01
DAV:   4    -0.360119382577E+04    0.13171E-02   -0.20264E-03  6528   0.300E-02    0.477E-01
DAV:   5    -0.360119262347E+04    0.12023E-02   -0.58125E-03  6400   0.553E-02    0.163E-01
DAV:   6    -0.360119267422E+04   -0.50749E-04   -0.10974E-03  6272   0.250E-02    0.451E-02
DAV:   7    -0.360119267139E+04    0.28246E-05   -0.47684E-05  6144   0.569E-03    0.247E-02
DAV:   8    -0.360119266899E+04    0.24068E-05   -0.53352E-06  6144   0.264E-03    0.143E-02
DAV:   9    -0.360119266888E+04    0.10860E-06   -0.39907E-06  5376   0.202E-03
 augmentation electrons   1811.97275863643     
 soft         electrons  0.000000000000000E+000
 total        electrons   1811.97275863643     
 augmentation electrons -8.174899473538248E-002
 soft         electrons  0.000000000000000E+000
 total        electrons -8.174899473538248E-002
 augmentation electrons   2051.69277304494     
 soft         electrons  0.000000000000000E+000
 total        electrons   2051.69277304494     
 augmentation electrons   1994.17561317294     
 soft         electrons  0.000000000000000E+000
 total        electrons   1994.17561317294     
 augmentation electrons   54.9309433927628     
 soft         electrons   1757.04174122113     
 total        electrons   1811.97268461390     
 augmentation electrons   37.9690302301871     
 soft         electrons   1757.04174122113     
 total        electrons   59.9182153493982     
 translations:           0           1           0
   3 F= -.36391187E+04 E0= -.36391187E+04  d E =-.476314E+00  mag=    60.0000
 curvature:  -0.96 expect dE=-0.387E+00 dE for cont linesearch -0.120E-01
 trial: gam= 0.71174 g(F)=  0.404E+00 g(S)=  0.000E+00 ort = 0.759E-01 (trialstep = 0.718E+00)
 search vector abs. value=  0.746E+00
 bond charge predicted
       N       E                     dE             d eps       ncg     rms          rms(c)
DAV:   1    -0.360109287021E+04    0.99799E-01   -0.32844E+01  5248   0.468E+00    0.236E+00
DAV:   2    -0.360118736050E+04   -0.94490E-01   -0.12664E+00  6144   0.873E-01    0.142E+00
DAV:   3    -0.360117907131E+04    0.82892E-02   -0.34879E-02  6528   0.175E-01    0.851E-01
DAV:   4    -0.360117570509E+04    0.33662E-02   -0.51592E-03  6656   0.618E-02    0.561E-01
DAV:   5    -0.360117306972E+04    0.26354E-02   -0.64108E-03  6272   0.784E-02    0.179E-01
DAV:   6    -0.360117320570E+04   -0.13598E-03   -0.19718E-03  6144   0.355E-02    0.454E-02
DAV:   7    -0.360117319404E+04    0.11661E-04   -0.95725E-05  6272   0.883E-03    0.269E-02
DAV:   8    -0.360117318564E+04    0.83954E-05   -0.16415E-05  6400   0.436E-03    0.126E-02
DAV:   9    -0.360117318333E+04    0.23150E-05   -0.71262E-06  6400   0.296E-03    0.594E-03
DAV:  10    -0.360117318282E+04    0.50970E-06   -0.28112E-06  6528   0.172E-03
 augmentation electrons   1812.19374831107     
 soft         electrons  0.000000000000000E+000
 total        electrons   1812.19374831107     
 augmentation electrons -8.143423145949120E-002
 soft         electrons  0.000000000000000E+000
 total        electrons -8.143423145949120E-002
 augmentation electrons   2232.92171531651     
 soft         electrons  0.000000000000000E+000
 total        electrons   2232.92171531651     
 augmentation electrons   2175.40455544451     
 soft         electrons  0.000000000000000E+000
 total        electrons   2175.40455544451     
 augmentation electrons   55.1541093150776     
 soft         electrons   1757.03955896395     
 total        electrons   1812.19366827903     
 augmentation electrons   38.0217453444151     
 soft         electrons   1757.03955896395     
 total        electrons   59.9185313474976     
 translations:           0           1           0
   4 F= -.36391146E+04 E0= -.36391146E+04  d E =0.410238E-02  mag=    60.0000
 trial-energy change:    0.004102  1 .order    0.017639   -0.328834    0.364112
 step:   0.3617(harm=  0.3407)  dis= 0.01203  next Energy= -3639.203239 (dE=-0.846E-01)
 bond charge predicted
       N       E                     dE             d eps       ncg     rms          rms(c)
DAV:   1    -0.360124959978E+04   -0.76416E-01   -0.80932E+00  5248   0.233E+00    0.123E+00
DAV:   2    -0.360127264830E+04   -0.23049E-01   -0.30978E-01  6144   0.436E-01    0.734E-01
DAV:   3    -0.360127064192E+04    0.20064E-02   -0.85756E-03  6656   0.877E-02    0.429E-01
DAV:   4    -0.360126982696E+04    0.81495E-03   -0.12584E-03  6528   0.304E-02    0.285E-01
DAV:   5    -0.360126918240E+04    0.64456E-03   -0.16269E-03  6528   0.395E-02    0.943E-02
DAV:   6    -0.360126922563E+04   -0.43226E-04   -0.51264E-04  6144   0.179E-02    0.222E-02
DAV:   7    -0.360126922195E+04    0.36761E-05   -0.27547E-05  6144   0.468E-03    0.129E-02
DAV:   8    -0.360126921959E+04    0.23614E-05   -0.48170E-06  6272   0.236E-03    0.550E-03
DAV:   9    -0.360126921877E+04    0.81849E-06   -0.15673E-06  5376   0.150E-03
 augmentation electrons   1812.06713823496     
 soft         electrons  0.000000000000000E+000
 total        electrons   1812.06713823496     
 augmentation electrons -8.146721910400845E-002
 soft         electrons  0.000000000000000E+000
 total        electrons -8.146721910400845E-002
 augmentation electrons   2125.91190361364     
 soft         electrons  0.000000000000000E+000
 total        electrons   2125.91190361364     
 augmentation electrons   2068.39474374164     
 soft         electrons  0.000000000000000E+000
 total        electrons   2068.39474374164     
 augmentation electrons   55.0260509709601     
 soft         electrons   1757.04100974820     
 total        electrons   1812.06706071916     
 augmentation electrons   37.9959467301015     
 soft         electrons   1757.04100974820     
 total        electrons   59.9184977251743     
 translations:           0           1           0
   5 F= -.36392032E+04 E0= -.36392032E+04  d E =-.845389E-01  mag=    60.0000
 curvature:  -0.28 expect dE=-0.361E-01 dE for cont linesearch -0.389E-03
 ZBRENT: interpolating
 opt :   0.3378  next Energy= -3639.203592 (dE=-0.849E-01)
 bond charge predicted
       N       E                     dE             d eps       ncg     rms          rms(c)
DAV:   1    -0.360126952538E+04   -0.30579E-03   -0.36197E-02  5760   0.156E-01    0.788E-02
DAV:   2    -0.360126963319E+04   -0.10781E-03   -0.14044E-03  6144   0.289E-02    0.465E-02
DAV:   3    -0.360126962546E+04    0.77309E-05   -0.38531E-05  6656   0.589E-03    0.289E-02
DAV:   4    -0.360126962271E+04    0.27521E-05   -0.55030E-06  6528   0.203E-03    0.193E-02
DAV:   5    -0.360126962168E+04    0.10252E-05   -0.70793E-06  6016   0.261E-03    0.598E-03
DAV:   6    -0.360126962228E+04   -0.60222E-06   -0.21177E-06  5248   0.119E-03
 augmentation electrons   1812.05985242027     
 soft         electrons  0.000000000000000E+000
 total        electrons   1812.05985242027     
 augmentation electrons -8.147529497548398E-002
 soft         electrons  0.000000000000000E+000
 total        electrons -8.147529497548398E-002
 augmentation electrons   2120.12313352275     
 soft         electrons  0.000000000000000E+000
 total        electrons   2120.12313352275     
 augmentation electrons   2062.60597365075     
 soft         electrons  0.000000000000000E+000
 total        electrons   2062.60597365075     
 augmentation electrons   55.0187631553902     
 soft         electrons   1757.04101195973     
 total        electrons   1812.05977511512     
 augmentation electrons   37.9942394546837     
 soft         electrons   1757.04101195973     
 total        electrons   59.9184896081756     
 translations:           0           1           0
   6 F= -.36392031E+04 E0= -.36392031E+04  d E =-.844551E-01  mag=    60.0000
 curvature:  -0.27 expect dE=-0.290E-01 dE for cont linesearch -0.145E-05
 trial: gam= 0.41659 g(F)=  0.105E+00 g(S)=  0.000E+00 ort = 0.199E-02 (trialstep = 0.642E+00)
 search vector abs. value=  0.236E+00
 bond charge predicted
       N       E                     dE             d eps       ncg     rms          rms(c)
DAV:   1    -0.360126628721E+04    0.33345E-02   -0.73455E+00  5248   0.215E+00    0.125E+00
DAV:   2    -0.360129740567E+04   -0.31118E-01   -0.35578E-01  6144   0.422E-01    0.729E-01
DAV:   3    -0.360129644234E+04    0.96332E-03   -0.87337E-03  6272   0.832E-02    0.401E-01
DAV:   4    -0.360129593615E+04    0.50619E-03   -0.94490E-04  6528   0.254E-02    0.271E-01
DAV:   5    -0.360129542546E+04    0.51069E-03   -0.11981E-03  6400   0.313E-02    0.109E-01
DAV:   6    -0.360129544092E+04   -0.15461E-04   -0.40202E-04  6272   0.160E-02    0.212E-02
DAV:   7    -0.360129543790E+04    0.30179E-05   -0.29686E-05  6144   0.471E-03    0.128E-02
DAV:   8    -0.360129543599E+04    0.19178E-05   -0.41144E-06  5760   0.214E-03    0.599E-03
DAV:   9    -0.360129543556E+04    0.42829E-06   -0.14786E-06  5376   0.153E-03
 augmentation electrons   1812.21985544854     
 soft         electrons  0.000000000000000E+000
 total        electrons   1812.21985544854     
 augmentation electrons -8.169679523505488E-002
 soft         electrons  0.000000000000000E+000
 total        electrons -8.169679523505488E-002
 augmentation electrons   2267.98082312992     
 soft         electrons  0.000000000000000E+000
 total        electrons   2267.98082312992     
 augmentation electrons   2210.46366325792     
 soft         electrons  0.000000000000000E+000
 total        electrons   2210.46366325792     
 augmentation electrons   55.1772782027566     
 soft         electrons   1757.04249998908     
 total        electrons   1812.21977819184     
 augmentation electrons   38.0210257906866     
 soft         electrons   1757.04249998908     
 total        electrons   59.9182689344995     
 translations:           0           1           0
   7 F= -.36392357E+04 E0= -.36392357E+04  d E =-.325862E-01  mag=    60.0000
 trial-energy change:   -0.032586  1 .order   -0.023889   -0.068155    0.020377
 step:   0.5433(harm=  0.4942)  dis= 0.01248  next Energy= -3639.237241 (dE=-0.341E-01)
 bond charge predicted
       N       E                     dE             d eps       ncg     rms          rms(c)
DAV:   1    -0.360129648938E+04   -0.10534E-02   -0.17385E-01  5760   0.330E-01    0.197E-01
DAV:   2    -0.360129721033E+04   -0.72095E-03   -0.81950E-03  6144   0.650E-02    0.114E-01
DAV:   3    -0.360129719126E+04    0.19070E-04   -0.20288E-04  6400   0.127E-02    0.612E-02
DAV:   4    -0.360129718074E+04    0.10522E-04   -0.22960E-05  6528   0.397E-03    0.415E-02
DAV:   5    -0.360129717304E+04    0.76981E-05   -0.28141E-05  6528   0.500E-03    0.169E-02
DAV:   6    -0.360129717504E+04   -0.19950E-05   -0.10455E-05  6400   0.266E-03    0.339E-03
DAV:   7    -0.360129717492E+04    0.11828E-06   -0.97174E-07  4736   0.857E-04
 augmentation electrons   1812.19021639480     
 soft         electrons  0.000000000000000E+000
 total        electrons   1812.19021639480     
 augmentation electrons -8.156383974177295E-002
 soft         electrons  0.000000000000000E+000
 total        electrons -8.156383974177295E-002
 augmentation electrons   2240.02573866613     
 soft         electrons  0.000000000000000E+000
 total        electrons   2240.02573866613     
 augmentation electrons   2182.50857879413     
 soft         electrons  0.000000000000000E+000
 total        electrons   2182.50857879413     
 augmentation electrons   55.1478836194793     
 soft         electrons   1757.04225531676     
 total        electrons   1812.19013893624     
 augmentation electrons   38.0170247120587     
 soft         electrons   1757.04225531676     
 total        electrons   59.9184017555105     
 translations:           0           1           0
   8 F= -.36392364E+04 E0= -.36392364E+04  d E =-.333032E-01  mag=    60.0000
 curvature:  -0.49 expect dE=-0.545E-01 dE for cont linesearch -0.263E-03
 trial: gam= 1.02434 g(F)=  0.111E+00 g(S)=  0.000E+00 ort =-0.113E-01 (trialstep = 0.437E+00)
 search vector abs. value=  0.336E+00
 bond charge predicted
       N       E                     dE             d eps       ncg     rms          rms(c)
DAV:   1    -0.360130356932E+04   -0.63943E-02   -0.47429E+00  5248   0.167E+00    0.103E+00
DAV:   2    -0.360132722269E+04   -0.23653E-01   -0.25618E-01  6016   0.325E-01    0.569E-01
DAV:   3    -0.360132688917E+04    0.33352E-03   -0.57950E-03  6144   0.624E-02    0.306E-01
DAV:   4    -0.360132659868E+04    0.29049E-03   -0.49233E-04  6656   0.167E-02    0.209E-01
DAV:   5    -0.360132626154E+04    0.33713E-03   -0.81821E-04  6528   0.265E-02    0.881E-02
DAV:   6    -0.360132627525E+04   -0.13705E-04   -0.25754E-04  6400   0.126E-02    0.169E-02
DAV:   7    -0.360132627374E+04    0.15075E-05   -0.16918E-05  6272   0.350E-03    0.900E-03
DAV:   8    -0.360132627254E+04    0.11987E-05   -0.21236E-06  5376   0.171E-03    0.400E-03
DAV:   9    -0.360132627217E+04    0.37180E-06   -0.85815E-07  5120   0.132E-03
 augmentation electrons   1812.39766989340     
 soft         electrons  0.000000000000000E+000
 total        electrons   1812.39766989340     
 augmentation electrons -8.180199608463751E-002
 soft         electrons  0.000000000000000E+000
 total        electrons -8.180199608463751E-002
 augmentation electrons   2430.54934855471     
 soft         electrons  0.000000000000000E+000
 total        electrons   2430.54934855471     
 augmentation electrons   2373.03218868271     
 soft         electrons  0.000000000000000E+000
 total        electrons   2373.03218868271     
 augmentation electrons   55.3560833666931     
 soft         electrons   1757.04151155777     
 total        electrons   1812.39759492447     
 augmentation electrons   38.0368924247286     
 soft         electrons   1757.04151155777     
 total        electrons   59.9181644557785     
 translations:           0           1           0
   9 F= -.36392677E+04 E0= -.36392677E+04  d E =-.312867E-01  mag=    60.0000
 trial-energy change:   -0.031287  1 .order   -0.027770   -0.043676   -0.011864
 step:   0.5278(harm=  0.6003)  dis= 0.01585  next Energy= -3639.268972 (dE=-0.325E-01)
 bond charge predicted
       N       E                     dE             d eps       ncg     rms          rms(c)
DAV:   1    -0.360132734337E+04   -0.10708E-02   -0.20295E-01  5888   0.346E-01    0.213E-01
DAV:   2    -0.360132834543E+04   -0.10021E-02   -0.10848E-02  6016   0.672E-02    0.116E-01
DAV:   3    -0.360132833089E+04    0.14538E-04   -0.24446E-04  6272   0.129E-02    0.634E-02
DAV:   4    -0.360132831851E+04    0.12383E-04   -0.20098E-05  6656   0.336E-03    0.438E-02
DAV:   5    -0.360132830235E+04    0.16157E-04   -0.35101E-05  6272   0.542E-03    0.181E-02
DAV:   6    -0.360132830233E+04    0.17782E-07   -0.10330E-05  6400   0.248E-03    0.346E-03
DAV:   7    -0.360132830232E+04    0.14203E-07   -0.48430E-07  3968   0.625E-04
 augmentation electrons   1812.45275692876     
 soft         electrons  0.000000000000000E+000
 total        electrons   1812.45275692876     
 augmentation electrons -8.190989703826458E-002
 soft         electrons  0.000000000000000E+000
 total        electrons -8.190989703826458E-002
 augmentation electrons   2479.83976480507     
 soft         electrons  0.000000000000000E+000
 total        electrons   2479.83976480507     
 augmentation electrons   2422.32260493307     
 soft         electrons  0.000000000000000E+000
 total        electrons   2422.32260493307     
 augmentation electrons   55.4112470169437     
 soft         electrons   1757.04143570795     
 total        electrons   1812.45268272489     
 augmentation electrons   38.0408644943162     
 soft         electrons   1757.04143570795     
 total        electrons   59.9180567403373     
 translations:           0           1           0
  10 F= -.36392701E+04 E0= -.36392701E+04  d E =-.337108E-01  mag=    60.0000
 curvature:  -0.81 expect dE=-0.696E-01 dE for cont linesearch -0.260E-03
 trial: gam= 0.47966 g(F)=  0.858E-01 g(S)=  0.000E+00 ort = 0.104E-01 (trialstep = 0.455E+00)
 search vector abs. value=  0.173E+00
 bond charge predicted
       N       E                     dE             d eps       ncg     rms          rms(c)
DAV:   1    -0.360133435951E+04   -0.60572E-02   -0.29089E+00  5376   0.154E+00    0.654E-01
DAV:   2    -0.360134731035E+04   -0.12951E-01   -0.14072E-01  6144   0.272E-01    0.349E-01
DAV:   3    -0.360134700643E+04    0.30392E-03   -0.33862E-03  6528   0.526E-02    0.209E-01
DAV:   4    -0.360134682536E+04    0.18107E-03   -0.40386E-04  6272   0.179E-02    0.149E-01
DAV:   5    -0.360134666774E+04    0.15761E-03   -0.34928E-04  6272   0.192E-02    0.523E-02
DAV:   6    -0.360134667717E+04   -0.94229E-05   -0.13449E-04  6272   0.946E-03    0.117E-02
DAV:   7    -0.360134667629E+04    0.87582E-06   -0.82164E-06  6272   0.268E-03
 augmentation electrons   1812.58997552237     
 soft         electrons  0.000000000000000E+000
 total        electrons   1812.58997552237     
 augmentation electrons -8.194521810134575E-002
 soft         electrons  0.000000000000000E+000
 total        electrons -8.194521810134575E-002
 augmentation electrons   2591.31301943976     
 soft         electrons  0.000000000000000E+000
 total        electrons   2591.31301943976     
 augmentation electrons   2533.79585956776     
 soft         electrons  0.000000000000000E+000
 total        electrons   2533.79585956776     
 augmentation electrons   55.5507190122309     
 soft         electrons   1757.03918637658     
 total        electrons   1812.58990538881     
 augmentation electrons   38.0481367451488     
 soft         electrons   1757.03918637658     
 total        electrons   59.9180220880052     
 translations:           0           1           0
  11 F= -.36392875E+04 E0= -.36392875E+04  d E =-.173345E-01  mag=    60.0000
 trial-energy change:   -0.017335  1 .order   -0.019510   -0.041334    0.002313
 step:   0.4220(harm=  0.4312)  dis= 0.00798  next Energy= -3639.287556 (dE=-0.174E-01)
 bond charge predicted
       N       E                     dE             d eps       ncg     rms          rms(c)
DAV:   1    -0.360134674545E+04   -0.68287E-04   -0.15468E-02  5760   0.113E-01    0.482E-02
DAV:   2    -0.360134681302E+04   -0.67565E-04   -0.74590E-04  6144   0.201E-02    0.261E-02
DAV:   3    -0.360134681144E+04    0.15785E-05   -0.18064E-05  6656   0.388E-03    0.151E-02
DAV:   4    -0.360134681034E+04    0.11038E-05   -0.22020E-06  5760   0.140E-03    0.107E-02
DAV:   5    -0.360134680925E+04    0.10837E-05   -0.17582E-06  5248   0.168E-03    0.393E-03
DAV:   6    -0.360134680923E+04    0.27198E-07   -0.10933E-06  4992   0.984E-04
 augmentation electrons   1812.58026705865     
 soft         electrons  0.000000000000000E+000
 total        electrons   1812.58026705865     
 augmentation electrons -8.190508348032466E-002
 soft         electrons  0.000000000000000E+000
 total        electrons -8.190508348032466E-002
 augmentation electrons   2583.69321230494     
 soft         electrons  0.000000000000000E+000
 total        electrons   2583.69321230494     
 augmentation electrons   2526.17605243294     
 soft         electrons  0.000000000000000E+000
 total        electrons   2526.17605243294     
 augmentation electrons   55.5409385390800     
 soft         electrons   1757.03925808660     
 total        electrons   1812.58019662568     
 augmentation electrons   38.0476749394077     
 soft         electrons   1757.03925808660     
 total        electrons   59.9180621734355     
 translations:           0           1           0
  12 F= -.36392877E+04 E0= -.36392877E+04  d E =-.175313E-01  mag=    60.0000
 curvature:  -0.35 expect dE=-0.216E-01 dE for cont linesearch -0.350E-04
 trial: gam= 0.78372 g(F)=  0.617E-01 g(S)=  0.000E+00 ort = 0.416E-02 (trialstep = 0.445E+00)
 search vector abs. value=  0.175E+00
 bond charge predicted
       N       E                     dE             d eps       ncg     rms          rms(c)
DAV:   1    -0.360135285426E+04   -0.60450E-02   -0.25381E+00  5376   0.129E+00    0.608E-01
DAV:   2    -0.360136530936E+04   -0.12455E-01   -0.13054E-01  5888   0.229E-01    0.286E-01
DAV:   3    -0.360136518823E+04    0.12114E-03   -0.26562E-03  6272   0.426E-02    0.174E-01
DAV:   4    -0.360136505747E+04    0.13075E-03   -0.28204E-04  6400   0.143E-02    0.129E-01
DAV:   5    -0.360136494208E+04    0.11539E-03   -0.29827E-04  6400   0.166E-02    0.507E-02
DAV:   6    -0.360136494882E+04   -0.67405E-05   -0.97650E-05  6528   0.758E-03    0.105E-02
DAV:   7    -0.360136494800E+04    0.82375E-06   -0.65885E-06  6272   0.255E-03
 augmentation electrons   1812.63751373381     
 soft         electrons  0.000000000000000E+000
 total        electrons   1812.63751373381     
 augmentation electrons -8.132915294738163E-002
 soft         electrons  0.000000000000000E+000
 total        electrons -8.132915294738163E-002
 augmentation electrons   2619.64079125637     
 soft         electrons  0.000000000000000E+000
 total        electrons   2619.64079125637     
 augmentation electrons   2562.12363138437     
 soft         electrons  0.000000000000000E+000
 total        electrons   2562.12363138437     
 augmentation electrons   55.6002080071241     
 soft         electrons   1757.03724127267     
 total        electrons   1812.63744927980     
 augmentation electrons   38.0502747312269     
 soft         electrons   1757.03724127267     
 total        electrons   59.9186388060544     
 translations:           0           1           0
  13 F= -.36393035E+04 E0= -.36393035E+04  d E =-.158710E-01  mag=    60.0000
 trial-energy change:   -0.015871  1 .order   -0.019242   -0.028908   -0.009576
 step:   0.6655(harm=  0.6655)  dis= 0.01282  next Energy= -3639.309281 (dE=-0.216E-01)
 bond charge predicted
       N       E                     dE             d eps       ncg     rms          rms(c)
DAV:   1    -0.360136406762E+04    0.88121E-03   -0.62299E-01  5632   0.638E-01    0.301E-01
DAV:   2    -0.360136714188E+04   -0.30743E-02   -0.32153E-02  5888   0.114E-01    0.142E-01
DAV:   3    -0.360136711300E+04    0.28878E-04   -0.65184E-04  6144   0.211E-02    0.867E-02
DAV:   4    -0.360136708140E+04    0.31596E-04   -0.69519E-05  6272   0.707E-03    0.642E-02
DAV:   5    -0.360136705484E+04    0.26565E-04   -0.73562E-05  6272   0.810E-03    0.251E-02
DAV:   6    -0.360136705703E+04   -0.21932E-05   -0.23171E-05  6528   0.360E-03    0.509E-03
DAV:   7    -0.360136705696E+04    0.68365E-07   -0.12816E-06  5120   0.116E-03
 augmentation electrons   1812.66277008632     
 soft         electrons  0.000000000000000E+000
 total        electrons   1812.66277008632     
 augmentation electrons -8.073236050894304E-002
 soft         electrons  0.000000000000000E+000
 total        electrons -8.073236050894304E-002
 augmentation electrons   2631.78097444699     
 soft         electrons  0.000000000000000E+000
 total        electrons   2631.78097444699     
 augmentation electrons   2574.26381457500     
 soft         electrons  0.000000000000000E+000
 total        electrons   2574.26381457500     
 augmentation electrons   55.6264892587462     
 soft         electrons   1757.03621895557     
 total        electrons   1812.66270821431     
 augmentation electrons   38.0518982913818     
 soft         electrons   1757.03621895557     
 total        electrons   59.9192359377910     
 translations:           0           1           0
  14 F= -.36393045E+04 E0= -.36393045E+04  d E =-.168507E-01  mag=    60.0000
 curvature:  -0.89 expect dE=-0.869E-01 dE for cont linesearch -0.825E-05
 trial: gam= 1.48413 g(F)=  0.972E-01 g(S)=  0.000E+00 ort =-0.127E-02 (trialstep = 0.179E+00)
 search vector abs. value=  0.478E+00
 bond charge predicted
       N       E                     dE             d eps       ncg     rms          rms(c)
DAV:   1    -0.360137903447E+04   -0.11977E-01   -0.10839E+00  5376   0.773E-01    0.402E-01
DAV:   2    -0.360138465530E+04   -0.56208E-02   -0.57009E-02  5760   0.138E-01    0.181E-01
DAV:   3    -0.360138465075E+04    0.45458E-05   -0.10279E-03  6272   0.241E-02    0.109E-01
DAV:   4    -0.360138461414E+04    0.36605E-04   -0.80894E-05  6400   0.667E-03    0.851E-02
DAV:   5    -0.360138456153E+04    0.52613E-04   -0.14416E-04  6400   0.109E-02    0.387E-02
DAV:   6    -0.360138456446E+04   -0.29300E-05   -0.44550E-05  6528   0.479E-03    0.916E-03
DAV:   7    -0.360138456405E+04    0.41378E-06   -0.37373E-06  5888   0.187E-03
 augmentation electrons   1812.67380514831     
 soft         electrons  0.000000000000000E+000
 total        electrons   1812.67380514831     
 augmentation electrons -8.071354090742704E-002
 soft         electrons  0.000000000000000E+000
 total        electrons -8.071354090742704E-002
 augmentation electrons   2630.18675826259     
 soft         electrons  0.000000000000000E+000
 total        electrons   2630.18675826259     
 augmentation electrons   2572.66959839059     
 soft         electrons  0.000000000000000E+000
 total        electrons   2572.66959839059     
 augmentation electrons   55.6379652741971     
 soft         electrons   1757.03578075710     
 total        electrons   1812.67374603130     
 augmentation electrons   38.0515561902163     
 soft         electrons   1757.03578075710     
 total        electrons   59.9192552369282     
 translations:           0           1           0
  15 F= -.36393203E+04 E0= -.36393203E+04  d E =-.157900E-01  mag=    60.0000
 trial-energy change:   -0.015790  1 .order   -0.015637   -0.017022   -0.014252
 step:   0.6099(harm=  1.0977)  dis= 0.01883  next Energy= -3639.339660 (dE=-0.351E-01)
 bond charge predicted
       N       E                     dE             d eps       ncg     rms          rms(c)
DAV:   1    -0.360138460878E+04   -0.44314E-04   -0.63111E+00  5376   0.187E+00    0.973E-01
DAV:   2    -0.360141735301E+04   -0.32744E-01   -0.33248E-01  5760   0.335E-01    0.437E-01
DAV:   3    -0.360141733366E+04    0.19356E-04   -0.59932E-03  6272   0.583E-02    0.264E-01
DAV:   4    -0.360141712174E+04    0.21192E-03   -0.47074E-04  6400   0.161E-02    0.207E-01
DAV:   5    -0.360141681189E+04    0.30985E-03   -0.83987E-04  6528   0.264E-02    0.941E-02
DAV:   6    -0.360141682813E+04   -0.16240E-04   -0.26019E-04  6528   0.116E-02    0.224E-02
DAV:   7    -0.360141682584E+04    0.22833E-05   -0.22253E-05  6144   0.456E-03    0.918E-03
DAV:   8    -0.360141682467E+04    0.11705E-05   -0.41355E-06  6144   0.240E-03    0.349E-03
DAV:   9    -0.360141682433E+04    0.33871E-06   -0.13427E-06  5632   0.131E-03
 augmentation electrons   1812.65181814282     
 soft         electrons  0.000000000000000E+000
 total        electrons   1812.65181814282     
 augmentation electrons -7.947628953520351E-002
 soft         electrons  0.000000000000000E+000
 total        electrons -7.947628953520351E-002
 augmentation electrons   2614.24699675623     
 soft         electrons  0.000000000000000E+000
 total        electrons   2614.24699675623     
 augmentation electrons   2556.72983688423     
 soft         electrons  0.000000000000000E+000
 total        electrons   2556.72983688423     
 augmentation electrons   55.6169797261562     
 soft         electrons   1757.03478340648     
 total        electrons   1812.65176313264     
 augmentation electrons   38.0519879243134     
 soft         electrons   1757.03478340648     
 total        electrons   59.9204935601690     
 translations:           0           1           0
  16 F= -.36393484E+04 E0= -.36393484E+04  d E =-.439102E-01  mag=    60.0000
 curvature:  -1.98 expect dE=-0.111E+00 dE for cont linesearch -0.967E-02
 ZBRENT: increasing intervall
 opt :   1.4725  next Energy= -3639.363026 (dE=-0.585E-01)
 bond charge predicted
       N       E                     dE             d eps       ncg     rms          rms(c)
DAV:   1    -0.360131138210E+04    0.10544E+00   -0.25225E+01  5504   0.374E+00    0.195E+00
DAV:   2    -0.360144191493E+04   -0.13053E+00   -0.13262E+00  6016   0.674E-01    0.881E-01
DAV:   3    -0.360144193492E+04   -0.19989E-04   -0.24167E-02  6272   0.117E-01    0.533E-01
DAV:   4    -0.360144109398E+04    0.84095E-03   -0.18880E-03  6528   0.324E-02    0.417E-01
DAV:   5    -0.360143985304E+04    0.12409E-02   -0.33217E-03  6400   0.530E-02    0.190E-01
DAV:   6    -0.360143991472E+04   -0.61681E-04   -0.10387E-03  6528   0.236E-02    0.461E-02
DAV:   7    -0.360143990636E+04    0.83565E-05   -0.90309E-05  6144   0.929E-03    0.191E-02
DAV:   8    -0.360143990124E+04    0.51197E-05   -0.16546E-05  6656   0.497E-03    0.716E-03
DAV:   9    -0.360143989975E+04    0.14904E-05   -0.57863E-06  6784   0.272E-03    0.470E-03
DAV:  10    -0.360143989864E+04    0.11101E-05   -0.85527E-07  4864   0.188E-03    0.264E-03
DAV:  11    -0.360143989774E+04    0.90666E-06   -0.77202E-07  5120   0.186E-03
 augmentation electrons   1812.42080584308     
 soft         electrons  0.000000000000000E+000
 total        electrons   1812.42080584308     
 augmentation electrons -7.747774331546925E-002
 soft         electrons  0.000000000000000E+000
 total        electrons -7.747774331546925E-002
 augmentation electrons   2522.55903144846     
 soft         electrons  0.000000000000000E+000
 total        electrons   2522.55903144846     
 augmentation electrons   2465.04187157646     
 soft         electrons  0.000000000000000E+000
 total        electrons   2465.04187157646     
 augmentation electrons   55.3879931120469     
 soft         electrons   1757.03275309274     
 total        electrons   1812.42074620479     
 augmentation electrons   38.0526769012515     
 soft         electrons   1757.03275309274     
 total        electrons   59.9224938589304     
 translations:           0           1           0
  17 F= -.36393633E+04 E0= -.36393633E+04  d E =-.587658E-01  mag=    60.0000
 curvature:  -2.98 expect dE=-0.861E+00 dE for cont linesearch -0.236E-02
 ZBRENT: bracketing found
 ZBRENT: interpolating
 opt :   1.2253  next Energy= -3639.365684 (dE=-0.612E-01)
 bond charge predicted
       N       E                     dE             d eps       ncg     rms          rms(c)
DAV:   1    -0.360142859906E+04    0.11300E-01   -0.20753E+00  5504   0.108E+00    0.554E-01
DAV:   2    -0.360143935539E+04   -0.10756E-01   -0.10931E-01  5888   0.194E-01    0.250E-01
DAV:   3    -0.360143934590E+04    0.94853E-05   -0.19676E-03  6400   0.337E-02    0.151E-01
DAV:   4    -0.360143927298E+04    0.72920E-04   -0.16113E-04  6272   0.965E-03    0.118E-01
DAV:   5    -0.360143916708E+04    0.10590E-03   -0.27789E-04  6528   0.159E-02    0.531E-02
DAV:   6    -0.360143917154E+04   -0.44659E-05   -0.88775E-05  6528   0.700E-03    0.126E-02
DAV:   7    -0.360143917067E+04    0.87770E-06   -0.82638E-06  6144   0.283E-03
 augmentation electrons   1812.49787911661     
 soft         electrons  0.000000000000000E+000
 total        electrons   1812.49787911661     
 augmentation electrons -7.810160868865376E-002
 soft         electrons  0.000000000000000E+000
 total        electrons -7.810160868865376E-002
 augmentation electrons   2551.87361999428     
 soft         electrons  0.000000000000000E+000
 total        electrons   2551.87361999428     
 augmentation electrons   2494.35646012228     
 soft         electrons  0.000000000000000E+000
 total        electrons   2494.35646012228     
 augmentation electrons   55.4645256846176     
 soft         electrons   1757.03329658634     
 total        electrons   1812.49782227095     
 augmentation electrons   38.0523910030800     
 soft         electrons   1757.03329658634     
 total        electrons   59.9218695470454     
 translations:           0           1           0
  18 F= -.36393649E+04 E0= -.36393649E+04  d E =-.603908E-01  mag=    60.0000
 curvature:  -3.04 expect dE=-0.561E+00 dE for cont linesearch -0.292E-05
 trial: gam= 2.18781 g(F)=  0.185E+00 g(S)=  0.000E+00 ort =-0.677E-03 (trialstep = 0.751E-01)
 search vector abs. value=  0.247E+01
 bond charge predicted
       N       E                     dE             d eps       ncg     rms          rms(c)
DAV:   1    -0.360144930033E+04   -0.10129E-01   -0.97811E-01  5376   0.720E-01    0.380E-01
DAV:   2    -0.360145421916E+04   -0.49188E-02   -0.50308E-02  5888   0.130E-01    0.171E-01
DAV:   3    -0.360145420721E+04    0.11949E-04   -0.90706E-04  6272   0.230E-02    0.104E-01
DAV:   4    -0.360145417335E+04    0.33860E-04   -0.73963E-05  6400   0.657E-03    0.810E-02
DAV:   5    -0.360145412319E+04    0.50167E-04   -0.12378E-04  6528   0.105E-02    0.377E-02
DAV:   6    -0.360145412463E+04   -0.14388E-05   -0.42875E-05  6528   0.501E-03    0.908E-03
DAV:   7    -0.360145412418E+04    0.44730E-06   -0.47519E-06  6272   0.211E-03
 augmentation electrons   1812.44128065807     
 soft         electrons  0.000000000000000E+000
 total        electrons   1812.44128065807     
 augmentation electrons -7.764960943718592E-002
 soft         electrons  0.000000000000000E+000
 total        electrons -7.764960943718592E-002
 augmentation electrons   2527.64906798534     
 soft         electrons  0.000000000000000E+000
 total        electrons   2527.64906798534     
 augmentation electrons   2470.13190811334     
 soft         electrons  0.000000000000000E+000
 total        electrons   2470.13190811334     
 augmentation electrons   55.4077103532524     
 soft         electrons   1757.03351134093     
 total        electrons   1812.44122169418     
 augmentation electrons   38.0520847442875     
 soft         electrons   1757.03351134093     
 total        electrons   59.9223218862227     
 translations:           0           1           0
  19 F= -.36393783E+04 E0= -.36393783E+04  d E =-.134363E-01  mag=    60.0000
 ZBRENT: can't locate minimum, use default step
 trial-energy change:   -0.013436  1 .order   -0.012836   -0.013751   -0.011921
 step:   0.3004(harm=  0.5643)  dis= 0.02055  next Energy= -3639.416575 (dE=-0.517E-01)
 bond charge predicted
       N       E                     dE             d eps       ncg     rms          rms(c)
DAV:   1    -0.360144143428E+04    0.12690E-01   -0.87934E+00  5376   0.216E+00    0.114E+00
DAV:   2    -0.360148586701E+04   -0.44433E-01   -0.45350E-01  5888   0.392E-01    0.518E-01
DAV:   3    -0.360148579862E+04    0.68391E-04   -0.81496E-03  6272   0.686E-02    0.315E-01
DAV:   4    -0.360148550645E+04    0.29217E-03   -0.64307E-04  6400   0.190E-02    0.247E-01
DAV:   5    -0.360148507063E+04    0.43582E-03   -0.11245E-03  6400   0.305E-02    0.115E-01
DAV:   6    -0.360148508938E+04   -0.18751E-04   -0.36977E-04  6528   0.142E-02    0.273E-02
DAV:   7    -0.360148508679E+04    0.25877E-05   -0.35730E-05  6272   0.579E-03    0.115E-02
DAV:   8    -0.360148508503E+04    0.17664E-05   -0.61048E-06  6528   0.294E-03    0.428E-03
DAV:   9    -0.360148508446E+04    0.56198E-06   -0.17197E-06  6016   0.163E-03
 augmentation electrons   1812.27958434384     
 soft         electrons  0.000000000000000E+000
 total        electrons   1812.27958434384     
 augmentation electrons -7.541857413641623E-002
 soft         electrons  0.000000000000000E+000
 total        electrons -7.541857413641623E-002
 augmentation electrons   2468.22356957017     
 soft         electrons  0.000000000000000E+000
 total        electrons   2468.22356957017     
 augmentation electrons   2410.70640969817     
 soft         electrons  0.000000000000000E+000
 total        electrons   2410.70640969817     
 augmentation electrons   55.2453036735885     
 soft         electrons   1757.03421623302     
 total        electrons   1812.27951990661     
 augmentation electrons   38.0521255212999     
 soft         electrons   1757.03421623302     
 total        electrons   59.9245538121072     
 translations:           0           1           0
  20 F= -.36394048E+04 E0= -.36394048E+04  d E =-.398604E-01  mag=    60.0000
 curvature:  -2.70 expect dE=-0.168E+00 dE for cont linesearch -0.429E-02
 ZBRENT: increasing intervall
 opt :   0.7510  next Energy= -3639.389737 (dE=-0.248E-01)
 bond charge predicted
       N       E                     dE             d eps       ncg     rms          rms(c)
DAV:   1    -0.360131280580E+04    0.17228E+00   -0.35111E+01  5376   0.434E+00    0.231E+00
DAV:   2    -0.360149082599E+04   -0.17802E+00   -0.18193E+00  5888   0.792E-01    0.104E+00
DAV:   3    -0.360149061972E+04    0.20626E-03   -0.32718E-02  6272   0.139E-01    0.631E-01
DAV:   4    -0.360148944753E+04    0.11722E-02   -0.25975E-03  6400   0.387E-02    0.495E-01
DAV:   5    -0.360148772084E+04    0.17267E-02   -0.43427E-03  6400   0.610E-02    0.232E-01
DAV:   6    -0.360148778459E+04   -0.63745E-04   -0.14640E-03  6528   0.290E-02    0.566E-02
DAV:   7    -0.360148777670E+04    0.78867E-05   -0.14858E-04  6272   0.120E-02    0.238E-02
DAV:   8    -0.360148776910E+04    0.76017E-05   -0.23301E-05  6528   0.610E-03    0.883E-03
DAV:   9    -0.360148776671E+04    0.23881E-05   -0.76347E-06  6912   0.350E-03    0.571E-03
DAV:  10    -0.360148776516E+04    0.15493E-05   -0.18784E-06  5888   0.252E-03    0.317E-03
DAV:  11    -0.360148776394E+04    0.12189E-05   -0.10210E-06  5376   0.238E-03    0.187E-03
DAV:  12    -0.360148776355E+04    0.39171E-06   -0.20634E-06  6400   0.179E-03
 augmentation electrons   1812.00166129845     
 soft         electrons  0.000000000000000E+000
 total        electrons   1812.00166129845     
 augmentation electrons -7.179421979792774E-002
 soft         electrons  0.000000000000000E+000
 total        electrons -7.179421979792774E-002
 augmentation electrons   2378.14571618100     
 soft         electrons  0.000000000000000E+000
 total        electrons   2378.14571618100     
 augmentation electrons   2320.62855630900     
 soft         electrons  0.000000000000000E+000
 total        electrons   2320.62855630900     
 augmentation electrons   54.9660508165339     
 soft         electrons   1757.03555934214     
 total        electrons   1812.00161015867     
 augmentation electrons   38.0518117405260     
 soft         electrons   1757.03555934214     
 total        electrons   59.9281791344550     
 translations:           0           1           0
  21 F= -.36393985E+04 E0= -.36393985E+04  d E =-.336249E-01  mag=    60.0000
 curvature:   9.44 expect dE= 0.285E+01 dE for cont linesearch  0.498E-01
 ZBRENT: bracketing found
 ZBRENT: interpolating
 opt :   0.4602  next Energy= -3639.409779 (dE=-0.449E-01)
 bond charge predicted
       N       E                     dE             d eps       ncg     rms          rms(c)
DAV:   1    -0.360142250082E+04    0.65263E-01   -0.14635E+01  5376   0.283E+00    0.146E+00
DAV:   2    -0.360149622847E+04   -0.73728E-01   -0.75221E-01  5888   0.514E-01    0.659E-01
DAV:   3    -0.360149614564E+04    0.82836E-04   -0.13506E-02  6272   0.896E-02    0.398E-01
DAV:   4    -0.360149564848E+04    0.49715E-03   -0.11019E-03  6400   0.256E-02    0.312E-01
DAV:   5    -0.360149493604E+04    0.71245E-03   -0.18182E-03  6400   0.408E-02    0.141E-01
DAV:   6    -0.360149496395E+04   -0.27916E-04   -0.60115E-04  6528   0.186E-02    0.334E-02
DAV:   7    -0.360149495961E+04    0.43375E-05   -0.59674E-05  6272   0.765E-03    0.145E-02
DAV:   8    -0.360149495588E+04    0.37343E-05   -0.94388E-06  6656   0.406E-03    0.568E-03
DAV:   9    -0.360149495467E+04    0.12097E-05   -0.32795E-06  6656   0.239E-03    0.370E-03
DAV:  10    -0.360149495383E+04    0.84155E-06   -0.77500E-07  4608   0.179E-03
 augmentation electrons   1812.17589546952     
 soft         electrons  0.000000000000000E+000
 total        electrons   1812.17589546952     
 augmentation electrons -7.313571779555350E-002
 soft         electrons  0.000000000000000E+000
 total        electrons -7.313571779555350E-002
 augmentation electrons   2446.31442028565     
 soft         electrons  0.000000000000000E+000
 total        electrons   2446.31442028565     
 augmentation electrons   2388.79726041365     
 soft         electrons  0.000000000000000E+000
 total        electrons   2388.79726041365     
 augmentation electrons   55.1411966411347     
 soft         electrons   1757.03463622177     
 total        electrons   1812.17583286290     
 augmentation electrons   38.0529530997798     
 soft         electrons   1757.03463622177     
 total        electrons   59.9268371752217     
 translations:           0           1           0
  22 F= -.36394115E+04 E0= -.36394115E+04  d E =-.465551E-01  mag=    60.0000
 curvature:  -0.95 expect dE=-0.843E-01 dE for cont linesearch -0.537E-04
 trial: gam= 0.44321 g(F)=  0.887E-01 g(S)=  0.000E+00 ort = 0.118E-01 (trialstep = 0.152E+00)
 search vector abs. value=  0.584E+00
 bond charge predicted
       N       E                     dE             d eps       ncg     rms          rms(c)
DAV:   1    -0.360150313227E+04   -0.81776E-02   -0.98258E-01  5376   0.790E-01    0.363E-01
DAV:   2    -0.360150754820E+04   -0.44159E-02   -0.46576E-02  6144   0.139E-01    0.170E-01
DAV:   3    -0.360150749385E+04    0.54351E-04   -0.86110E-04  6528   0.249E-02    0.107E-01
DAV:   4    -0.360150744655E+04    0.47301E-04   -0.87188E-05  6528   0.787E-03    0.798E-02
DAV:   5    -0.360150740243E+04    0.44119E-04   -0.12927E-04  6400   0.112E-02    0.298E-02
DAV:   6    -0.360150740603E+04   -0.36008E-05   -0.39852E-05  6528   0.500E-03    0.628E-03
DAV:   7    -0.360150740544E+04    0.59122E-06   -0.30560E-06  6272   0.175E-03
 augmentation electrons   1812.13508936059     
 soft         electrons  0.000000000000000E+000
 total        electrons   1812.13508936059     
 augmentation electrons -7.175972219733828E-002
 soft         electrons  0.000000000000000E+000
 total        electrons -7.175972219733828E-002
 augmentation electrons   2442.46853335264     
 soft         electrons  0.000000000000000E+000
 total        electrons   2442.46853335264     
 augmentation electrons   2384.95137348064     
 soft         electrons  0.000000000000000E+000
 total        electrons   2384.95137348064     
 augmentation electrons   55.0999033778828     
 soft         electrons   1757.03512610353     
 total        electrons   1812.13502948141     
 augmentation electrons   38.0531502504354     
 soft         electrons   1757.03512610353     
 total        electrons   59.9282134261557     
 translations:           0           1           0
  23 F= -.36394220E+04 E0= -.36394220E+04  d E =-.105007E-01  mag=    60.0000
 trial-energy change:   -0.010501  1 .order   -0.011568   -0.014286   -0.008849
 step:   0.3997(harm=  0.3997)  dis= 0.01227  next Energy= -3639.430234 (dE=-0.188E-01)
 bond charge predicted
       N       E                     dE             d eps       ncg     rms          rms(c)
DAV:   1    -0.360150388501E+04    0.35210E-02   -0.25967E+00  5376   0.129E+00    0.589E-01
DAV:   2    -0.360151556808E+04   -0.11683E-01   -0.12311E-01  6144   0.227E-01    0.278E-01
DAV:   3    -0.360151543811E+04    0.12997E-03   -0.22750E-03  6528   0.403E-02    0.175E-01
DAV:   4    -0.360151531877E+04    0.11934E-03   -0.21961E-04  6528   0.123E-02    0.131E-01
DAV:   5    -0.360151520579E+04    0.11298E-03   -0.34041E-04  6400   0.174E-02    0.487E-02
DAV:   6    -0.360151521559E+04   -0.98032E-05   -0.97419E-05  6528   0.759E-03    0.101E-02
DAV:   7    -0.360151521441E+04    0.11791E-05   -0.65021E-06  6272   0.253E-03    0.526E-03
DAV:   8    -0.360151521412E+04    0.28912E-06   -0.15742E-06  5248   0.132E-03
 augmentation electrons   1812.07782703287     
 soft         electrons  0.000000000000000E+000
 total        electrons   1812.07782703287     
 augmentation electrons -6.879870086171669E-002
 soft         electrons  0.000000000000000E+000
 total        electrons -6.879870086171669E-002
 augmentation electrons   2455.47957615861     
 soft         electrons  0.000000000000000E+000
 total        electrons   2455.47957615861     
 augmentation electrons   2397.96241628661     
 soft         electrons  0.000000000000000E+000
 total        electrons   2397.96241628661     
 augmentation electrons   55.0418540781887     
 soft         electrons   1757.03591855310     
 total        electrons   1812.07777263129     
 augmentation electrons   38.0542181075009     
 soft         electrons   1757.03591855310     
 total        electrons   59.9311747961703     
 translations:           0           1           0
  24 F= -.36394266E+04 E0= -.36394266E+04  d E =-.151576E-01  mag=    60.0000
 curvature:  -1.24 expect dE=-0.428E-01 dE for cont linesearch -0.192E-03
 ZBRENT: interpolating
 opt :   0.3650  next Energy= -3639.426786 (dE=-0.153E-01)
 bond charge predicted
       N       E                     dE             d eps       ncg     rms          rms(c)
DAV:   1    -0.360151494836E+04    0.26605E-03   -0.51298E-02  5760   0.181E-01    0.833E-02
DAV:   2    -0.360151517822E+04   -0.22985E-03   -0.24243E-03  6144   0.319E-02    0.383E-02
DAV:   3    -0.360151517456E+04    0.36536E-05   -0.44416E-05  6528   0.569E-03    0.241E-02
DAV:   4    -0.360151517164E+04    0.29250E-05   -0.47898E-06  5888   0.190E-03    0.179E-02
DAV:   5    -0.360151516847E+04    0.31663E-05   -0.69408E-06  6016   0.274E-03    0.663E-03
DAV:   6    -0.360151516847E+04    0.25611E-08   -0.22648E-06  5888   0.123E-03
 augmentation electrons   1812.08432531173     
 soft         electrons  0.000000000000000E+000
 total        electrons   1812.08432531173     
 augmentation electrons -6.940984205748912E-002
 soft         electrons  0.000000000000000E+000
 total        electrons -6.940984205748912E-002
 augmentation electrons   2450.17983011749     
 soft         electrons  0.000000000000000E+000
 total        electrons   2450.17983011749     
 augmentation electrons   2392.66267024549     
 soft         electrons  0.000000000000000E+000
 total        electrons   2392.66267024549     
 augmentation electrons   55.0484691744466     
 soft         electrons   1757.03580094552     
 total        electrons   1812.08427011997     
 augmentation electrons   38.0538750125763     
 soft         electrons   1757.03580094552     
 total        electrons   59.9305636114185     
 translations:           0           1           0
  25 F= -.36394270E+04 E0= -.36394270E+04  d E =-.155548E-01  mag=    60.0000
 curvature:  -1.07 expect dE=-0.300E-01 dE for cont linesearch -0.239E-06
 trial: gam= 0.33394 g(F)=  0.281E-01 g(S)=  0.000E+00 ort =-0.362E-03 (trialstep = 0.195E+00)
 search vector abs. value=  0.930E-01
 bond charge predicted
       N       E                     dE             d eps       ncg     rms          rms(c)
DAV:   1    -0.360151857051E+04   -0.34020E-02   -0.26076E-01  5760   0.440E-01    0.174E-01
DAV:   2    -0.360151949028E+04   -0.91977E-03   -0.10386E-02  6144   0.757E-02    0.897E-02
DAV:   3    -0.360151945646E+04    0.33821E-04   -0.22458E-04  6656   0.146E-02    0.587E-02
DAV:   4    -0.360151944189E+04    0.14571E-04   -0.37022E-05  6656   0.564E-03    0.419E-02
DAV:   5    -0.360151943441E+04    0.74833E-05   -0.24566E-05  6272   0.515E-03    0.143E-02
DAV:   6    -0.360151943588E+04   -0.14748E-05   -0.93942E-06  6528   0.268E-03    0.323E-03
DAV:   7    -0.360151943590E+04   -0.21697E-07   -0.61739E-07  3584   0.806E-04
 augmentation electrons   1812.06955830990     
 soft         electrons  0.000000000000000E+000
 total        electrons   1812.06955830990     
 augmentation electrons -6.836581883909962E-002
 soft         electrons  0.000000000000000E+000
 total        electrons -6.836581883909962E-002
 augmentation electrons   2456.54853008182     
 soft         electrons  0.000000000000000E+000
 total        electrons   2456.54853008182     
 augmentation electrons   2399.03137020982     
 soft         electrons  0.000000000000000E+000
 total        electrons   2399.03137020982     
 augmentation electrons   55.0337134387897     
 soft         electrons   1757.03579144888     
 total        electrons   1812.06950488767     
 augmentation electrons   38.0539402798718     
 soft         electrons   1757.03579144888     
 total        electrons   59.9316078091107     
 translations:           0           1           0
  26 F= -.36394300E+04 E0= -.36394300E+04  d E =-.302780E-02  mag=    60.0000
 trial-energy change:   -0.003028  1 .order   -0.003963   -0.005443   -0.002482
 step:   0.3579(harm=  0.3579)  dis= 0.00353  next Energy= -3639.432022 (dE=-0.500E-02)
 bond charge predicted
       N       E                     dE             d eps       ncg     rms          rms(c)
DAV:   1    -0.360152006178E+04   -0.62590E-03   -0.18374E-01  5760   0.369E-01    0.146E-01
DAV:   2    -0.360152071333E+04   -0.65155E-03   -0.73348E-03  6144   0.636E-02    0.759E-02
DAV:   3    -0.360152068955E+04    0.23781E-04   -0.15839E-04  6656   0.122E-02    0.496E-02
DAV:   4    -0.360152067943E+04    0.10121E-04   -0.25765E-05  6528   0.467E-03    0.354E-02
DAV:   5    -0.360152067441E+04    0.50187E-05   -0.18048E-05  6272   0.429E-03    0.121E-02
DAV:   6    -0.360152067561E+04   -0.11979E-05   -0.64920E-06  6528   0.217E-03    0.268E-03
DAV:   7    -0.360152067565E+04   -0.44485E-07   -0.38285E-07  3328   0.643E-04
 augmentation electrons   1812.05543558437     
 soft         electrons  0.000000000000000E+000
 total        electrons   1812.05543558437     
 augmentation electrons -6.795366776986858E-002
 soft         electrons  0.000000000000000E+000
 total        electrons -6.795366776986858E-002
 augmentation electrons   2455.20564909611     
 soft         electrons  0.000000000000000E+000
 total        electrons   2455.20564909611     
 augmentation electrons   2397.68848922411     
 soft         electrons  0.000000000000000E+000
 total        electrons   2397.68848922411     
 augmentation electrons   55.0195773861672     
 soft         electrons   1757.03580626207     
 total        electrons   1812.05538364823     
 augmentation electrons   38.0535234198209     
 soft         electrons   1757.03580626207     
 total        electrons   59.9320201044870     
 translations:           0           1           0
  27 F= -.36394302E+04 E0= -.36394302E+04  d E =-.322884E-02  mag=    60.0000
 curvature:  -0.60 expect dE=-0.658E-02 dE for cont linesearch -0.595E-05
 trial: gam= 0.39274 g(F)=  0.111E-01 g(S)=  0.000E+00 ort =-0.964E-03 (trialstep = 0.227E+00)
 search vector abs. value=  0.246E-01
 bond charge predicted
       N       E                     dE             d eps       ncg     rms          rms(c)
DAV:   1    -0.360152287381E+04   -0.21982E-02   -0.88819E-02  5632   0.272E-01    0.103E-01
DAV:   2    -0.360152317218E+04   -0.29837E-03   -0.33524E-03  6272   0.442E-02    0.534E-02
DAV:   3    -0.360152316270E+04    0.94840E-05   -0.74705E-05  6656   0.837E-03    0.346E-02
DAV:   4    -0.360152315775E+04    0.49470E-05   -0.92269E-06  6400   0.284E-03    0.244E-02
DAV:   5    -0.360152315503E+04    0.27230E-05   -0.11012E-05  6144   0.338E-03    0.681E-03
DAV:   6    -0.360152315551E+04   -0.48042E-06   -0.30438E-06  5120   0.148E-03
 augmentation electrons   1812.04179831239     
 soft         electrons  0.000000000000000E+000
 total        electrons   1812.04179831239     
 augmentation electrons -6.836823960979824E-002
 soft         electrons  0.000000000000000E+000
 total        electrons -6.836823960979824E-002
 augmentation electrons   2444.20593894586     
 soft         electrons  0.000000000000000E+000
 total        electrons   2444.20593894586     
 augmentation electrons   2386.68877907386     
 soft         electrons  0.000000000000000E+000
 total        electrons   2386.68877907386     
 augmentation electrons   55.0057035401238     
 soft         electrons   1757.03604382044     
 total        electrons   1812.04174736056     
 augmentation electrons   38.0523424724935     
 soft         electrons   1757.03604382044     
 total        electrons   59.9316056925015     
 translations:           0           1           0
  28 F= -.36394323E+04 E0= -.36394323E+04  d E =-.206389E-02  mag=    60.0000
 trial-energy change:   -0.002064  1 .order   -0.001990   -0.002427   -0.001554
 step:   0.4335(harm=  0.6316)  dis= 0.00247  next Energy= -3639.433070 (dE=-0.282E-02)
 bond charge predicted
       N       E                     dE             d eps       ncg     rms          rms(c)
DAV:   1    -0.360152436628E+04   -0.12113E-02   -0.73167E-02  5632   0.247E-01    0.935E-02
DAV:   2    -0.360152461271E+04   -0.24643E-03   -0.27648E-03  6272   0.401E-02    0.483E-02
DAV:   3    -0.360152460464E+04    0.80726E-05   -0.61075E-05  6656   0.758E-03    0.313E-02
DAV:   4    -0.360152460046E+04    0.41748E-05   -0.78302E-06  6400   0.262E-03    0.221E-02
DAV:   5    -0.360152459826E+04    0.22074E-05   -0.90664E-06  5888   0.309E-03    0.610E-03
DAV:   6    -0.360152459867E+04   -0.40985E-06   -0.25894E-06  5120   0.136E-03
 augmentation electrons   1812.02968028265     
 soft         electrons  0.000000000000000E+000
 total        electrons   1812.02968028265     
 augmentation electrons -6.856717529261722E-002
 soft         electrons  0.000000000000000E+000
 total        electrons -6.856717529261722E-002
 augmentation electrons   2434.80433552239     
 soft         electrons  0.000000000000000E+000
 total        electrons   2434.80433552239     
 augmentation electrons   2377.28717565039     
 soft         electrons  0.000000000000000E+000
 total        electrons   2377.28717565039     
 augmentation electrons   54.9933753334845     
 soft         electrons   1757.03625490525     
 total        electrons   1812.02963023873     
 augmentation electrons   38.0514561810734     
 soft         electrons   1757.03625490525     
 total        electrons   59.9314069038826     
 translations:           0           1           0
  29 F= -.36394334E+04 E0= -.36394334E+04  d E =-.312947E-02  mag=    60.0000
 curvature:  -0.55 expect dE=-0.453E-02 dE for cont linesearch -0.187E-03
 ZBRENT: increasing intervall
 opt :   0.8458  next Energy= -3639.432935 (dE=-0.269E-02)
 bond charge predicted
       N       E                     dE             d eps       ncg     rms          rms(c)
DAV:   1    -0.360152410462E+04    0.49363E-03   -0.29214E-01  5376   0.494E-01    0.187E-01
DAV:   2    -0.360152508331E+04   -0.97869E-03   -0.11024E-02  6144   0.802E-02    0.967E-02
DAV:   3    -0.360152505114E+04    0.32173E-04   -0.24508E-04  6784   0.152E-02    0.626E-02
DAV:   4    -0.360152503440E+04    0.16737E-04   -0.30659E-05  6400   0.519E-03    0.442E-02
DAV:   5    -0.360152502457E+04    0.98310E-05   -0.36133E-05  6400   0.616E-03    0.123E-02
DAV:   6    -0.360152502596E+04   -0.13903E-05   -0.10173E-05  6272   0.269E-03    0.359E-03
DAV:   7    -0.360152502588E+04    0.84576E-07   -0.38414E-07  3456   0.667E-04
 augmentation electrons   1812.00560056071     
 soft         electrons  0.000000000000000E+000
 total        electrons   1812.00560056071     
 augmentation electrons -6.892237800900802E-002
 soft         electrons  0.000000000000000E+000
 total        electrons -6.892237800900802E-002
 augmentation electrons   2416.67372198629     
 soft         electrons  0.000000000000000E+000
 total        electrons   2416.67372198629     
 augmentation electrons   2359.15656211429     
 soft         electrons  0.000000000000000E+000
 total        electrons   2359.15656211429     
 augmentation electrons   54.9688951919781     
 soft         electrons   1757.03665716869     
 total        electrons   1812.00555236067     
 augmentation electrons   38.0497340130770     
 soft         electrons   1757.03665716869     
 total        electrons   59.9310520013018     
 translations:           0           1           0
  30 F= -.36394330E+04 E0= -.36394330E+04  d E =-.280017E-02  mag=    60.0000
 curvature:   1.31 expect dE= 0.385E-01 dE for cont linesearch  0.137E-02
 ZBRENT: bracketing found
 ZBRENT: interpolating
 opt :   0.5830  next Energy= -3639.433592 (dE=-0.334E-02)
 bond charge predicted
       N       E                     dE             d eps       ncg     rms          rms(c)
DAV:   1    -0.360152475340E+04    0.27256E-03   -0.11819E-01  5376   0.315E-01    0.118E-01
DAV:   2    -0.360152514457E+04   -0.39117E-03   -0.44434E-03  6144   0.509E-02    0.612E-02
DAV:   3    -0.360152513134E+04    0.13224E-04   -0.99395E-05  6784   0.965E-03    0.396E-02
DAV:   4    -0.360152512432E+04    0.70248E-05   -0.12094E-05  6400   0.329E-03    0.280E-02
DAV:   5    -0.360152511929E+04    0.50278E-05   -0.14045E-05  6144   0.388E-03    0.774E-03
DAV:   6    -0.360152511958E+04   -0.29131E-06   -0.40240E-06  5504   0.171E-03
 augmentation electrons   1812.02085068790     
 soft         electrons  0.000000000000000E+000
 total        electrons   1812.02085068790     
 augmentation electrons -6.869591086607785E-002
 soft         electrons  0.000000000000000E+000
 total        electrons -6.869591086607785E-002
 augmentation electrons   2428.15835370081     
 soft         electrons  0.000000000000000E+000
 total        electrons   2428.15835370081     
 augmentation electrons   2370.64119382881     
 soft         electrons  0.000000000000000E+000
 total        electrons   2370.64119382881     
 augmentation electrons   54.9843753945698     
 soft         electrons   1757.03642591502     
 total        electrons   1812.02080130959     
 augmentation electrons   38.0508346431077     
 soft         electrons   1757.03642591502     
 total        electrons   59.9312782762324     
 translations:           0           1           0
  31 F= -.36394336E+04 E0= -.36394336E+04  d E =-.337444E-02  mag=    60.0000
 curvature:  -0.21 expect dE=-0.278E-02 dE for cont linesearch -0.757E-06
 trial: gam= 1.18767 g(F)=  0.135E-01 g(S)=  0.000E+00 ort = 0.300E-03 (trialstep = 0.150E+00)
 search vector abs. value=  0.489E-01
 bond charge predicted
       N       E                     dE             d eps       ncg     rms          rms(c)
DAV:   1    -0.360152707094E+04   -0.19516E-02   -0.71843E-02  5504   0.245E-01    0.941E-02
DAV:   2    -0.360152731794E+04   -0.24700E-03   -0.27492E-03  6144   0.395E-02    0.482E-02
DAV:   3    -0.360152731190E+04    0.60346E-05   -0.59424E-05  6784   0.743E-03    0.309E-02
DAV:   4    -0.360152730822E+04    0.36805E-05   -0.70319E-06  6528   0.249E-03    0.219E-02
DAV:   5    -0.360152730580E+04    0.24194E-05   -0.84445E-06  5888   0.300E-03    0.605E-03
DAV:   6    -0.360152730608E+04   -0.28017E-06   -0.22836E-06  4992   0.130E-03
 augmentation electrons   1812.00866274453     
 soft         electrons  0.000000000000000E+000
 total        electrons   1812.00866274453     
 augmentation electrons -6.872158631736616E-002
 soft         electrons  0.000000000000000E+000
 total        electrons -6.872158631736616E-002
 augmentation electrons   2421.55497695324     
 soft         electrons  0.000000000000000E+000
 total        electrons   2421.55497695324     
 augmentation electrons   2364.03781708124     
 soft         electrons  0.000000000000000E+000
 total        electrons   2364.03781708124     
 augmentation electrons   54.9716567528363     
 soft         electrons   1757.03695770802     
 total        electrons   1812.00861446086     
 augmentation electrons   38.0501618091413     
 soft         electrons   1757.03695770802     
 total        electrons   59.9312527508397     
 translations:           0           1           0
  32 F= -.36394355E+04 E0= -.36394355E+04  d E =-.192550E-02  mag=    60.0000
 trial-energy change:   -0.001925  1 .order   -0.001763   -0.002076   -0.001450
 step:   0.4990(harm=  0.4990)  dis= 0.00430  next Energy= -3639.437067 (dE=-0.345E-02)
 bond charge predicted
       N       E                     dE             d eps       ncg     rms          rms(c)
DAV:   1    -0.360152877156E+04   -0.14658E-02   -0.38821E-01  5504   0.569E-01    0.220E-01
DAV:   2    -0.360153012118E+04   -0.13496E-02   -0.14903E-02  6144   0.919E-02    0.112E-01
DAV:   3    -0.360153008687E+04    0.34309E-04   -0.31826E-04  6784   0.172E-02    0.719E-02
DAV:   4    -0.360153006633E+04    0.20540E-04   -0.39197E-05  6528   0.584E-03    0.508E-02
DAV:   5    -0.360153005305E+04    0.13281E-04   -0.47341E-05  6400   0.699E-03    0.140E-02
DAV:   6    -0.360153005457E+04   -0.15185E-05   -0.12413E-05  6272   0.301E-03    0.420E-03
DAV:   7    -0.360153005429E+04    0.27675E-06   -0.46221E-07  3712   0.729E-04
 augmentation electrons   1811.98032123244     
 soft         electrons  0.000000000000000E+000
 total        electrons   1811.98032123244     
 augmentation electrons -6.845948164078627E-002
 soft         electrons  0.000000000000000E+000
 total        electrons -6.845948164078627E-002
 augmentation electrons   2405.81719644175     
 soft         electrons  0.000000000000000E+000
 total        electrons   2405.81719644175     
 augmentation electrons   2348.30003656975     
 soft         electrons  0.000000000000000E+000
 total        electrons   2348.30003656975     
 augmentation electrons   54.9420314066332     
 soft         electrons   1757.03824412745     
 total        electrons   1811.98027553409     
 augmentation electrons   38.0489352329757     
 soft         electrons   1757.03824412745     
 total        electrons   59.9315152140966     
 translations:           0           1           0
  33 F= -.36394377E+04 E0= -.36394377E+04  d E =-.407141E-02  mag=    60.0000
 curvature:  -0.88 expect dE=-0.976E-02 dE for cont linesearch -0.600E-05
 trial: gam= 0.76696 g(F)=  0.110E-01 g(S)=  0.000E+00 ort = 0.576E-03 (trialstep = 0.220E+00)
 search vector abs. value=  0.407E-01
 bond charge predicted
       N       E                     dE             d eps       ncg     rms          rms(c)
DAV:   1    -0.360153208468E+04   -0.20301E-02   -0.13057E-01  5376   0.333E-01    0.121E-01
DAV:   2    -0.360153249162E+04   -0.40694E-03   -0.45947E-03  6144   0.532E-02    0.634E-02
DAV:   3    -0.360153247795E+04    0.13667E-04   -0.98955E-05  6656   0.984E-03    0.413E-02
DAV:   4    -0.360153247038E+04    0.75742E-05   -0.14072E-05  6528   0.355E-03    0.287E-02
DAV:   5    -0.360153246680E+04    0.35761E-05   -0.15638E-05  6144   0.408E-03    0.717E-03
DAV:   6    -0.360153246735E+04   -0.54949E-06   -0.39326E-06  5504   0.174E-03
 augmentation electrons   1811.96392310966     
 soft         electrons  0.000000000000000E+000
 total        electrons   1811.96392310966     
 augmentation electrons -6.804850004370532E-002
 soft         electrons  0.000000000000000E+000
 total        electrons -6.804850004370532E-002
 augmentation electrons   2399.22263621147     
 soft         electrons  0.000000000000000E+000
 total        electrons   2399.22263621147     
 augmentation electrons   2341.70547633947     
 soft         electrons  0.000000000000000E+000
 total        electrons   2341.70547633947     
 augmentation electrons   54.9248580936220     
 soft         electrons   1757.03902061223     
 total        electrons   1811.96387870585     
 augmentation electrons   38.0485789218521     
 soft         electrons   1757.03902061223     
 total        electrons   59.9319263343578     
 translations:           0           1           0
  34 F= -.36394397E+04 E0= -.36394397E+04  d E =-.200382E-02  mag=    60.0000
 trial-energy change:   -0.002004  1 .order   -0.002012   -0.002527   -0.001497
 step:   0.5895(harm=  0.5400)  dis= 0.00463  next Energy= -3639.440913 (dE=-0.322E-02)
 bond charge predicted
       N       E                     dE             d eps       ncg     rms          rms(c)
DAV:   1    -0.360153329551E+04   -0.82871E-03   -0.36764E-01  5376   0.559E-01    0.203E-01
DAV:   2    -0.360153444079E+04   -0.11453E-02   -0.12921E-02  6144   0.893E-02    0.106E-01
DAV:   3    -0.360153440247E+04    0.38316E-04   -0.27767E-04  6656   0.165E-02    0.691E-02
DAV:   4    -0.360153438116E+04    0.21310E-04   -0.39354E-05  6528   0.596E-03    0.481E-02
DAV:   5    -0.360153437055E+04    0.10609E-04   -0.43784E-05  6144   0.687E-03    0.120E-02
DAV:   6    -0.360153437201E+04   -0.14585E-05   -0.11161E-05  6016   0.293E-03    0.407E-03
DAV:   7    -0.360153437180E+04    0.21304E-06   -0.46485E-07  3456   0.789E-04
 augmentation electrons   1811.93650109746     
 soft         electrons  0.000000000000000E+000
 total        electrons   1811.93650109746     
 augmentation electrons -6.764260582381096E-002
 soft         electrons  0.000000000000000E+000
 total        electrons -6.764260582381096E-002
 augmentation electrons   2386.66652975328     
 soft         electrons  0.000000000000000E+000
 total        electrons   2386.66652975328     
 augmentation electrons   2329.14936988128     
 soft         electrons  0.000000000000000E+000
 total        electrons   2329.14936988128     
 augmentation electrons   54.8961688296492     
 soft         electrons   1757.04029006570     
 total        electrons   1811.93645889535     
 augmentation electrons   38.0477169219680     
 soft         electrons   1757.04029006570     
 total        electrons   59.9323324695828     
 translations:           0           1           0
  35 F= -.36394409E+04 E0= -.36394409E+04  d E =-.321529E-02  mag=    60.0000
 curvature:  -0.93 expect dE=-0.122E-01 dE for cont linesearch -0.688E-05
 trial: gam= 1.31627 g(F)=  0.131E-01 g(S)=  0.000E+00 ort =-0.548E-03 (trialstep = 0.146E+00)
 search vector abs. value=  0.821E-01
 bond charge predicted
       N       E                     dE             d eps       ncg     rms          rms(c)
DAV:   1    -0.360153590500E+04   -0.15330E-02   -0.10403E-01  5376   0.290E-01    0.106E-01
DAV:   2    -0.360153623078E+04   -0.32578E-03   -0.36138E-03  6144   0.456E-02    0.549E-02
DAV:   3    -0.360153622222E+04    0.85510E-05   -0.68158E-05  6656   0.823E-03    0.359E-02
DAV:   4    -0.360153621662E+04    0.56061E-05   -0.11142E-05  6528   0.318E-03    0.244E-02
DAV:   5    -0.360153621493E+04    0.16844E-05   -0.11218E-05  6272   0.333E-03    0.542E-03
DAV:   6    -0.360153621527E+04   -0.33324E-06   -0.24900E-06  4864   0.142E-03
 augmentation electrons   1811.91928027340     
 soft         electrons  0.000000000000000E+000
 total        electrons   1811.91928027340     
 augmentation electrons -6.822478288139924E-002
 soft         electrons  0.000000000000000E+000
 total        electrons -6.822478288139924E-002
 augmentation electrons   2365.02701016178     
 soft         electrons  0.000000000000000E+000
 total        electrons   2365.02701016178     
 augmentation electrons   2307.50985028978     
 soft         electrons  0.000000000000000E+000
 total        electrons   2307.50985028978     
 augmentation electrons   54.8787239472930     
 soft         electrons   1757.04051490597     
 total        electrons   1811.91923885327     
 augmentation electrons   38.0465854574329     
 soft         electrons   1757.04051490597     
 total        electrons   59.9317503546413     
 translations:           0           1           0
  36 F= -.36394425E+04 E0= -.36394425E+04  d E =-.160207E-02  mag=    60.0000
 ZBRENT: can't locate minimum, use default step
 trial-energy change:   -0.001602  1 .order   -0.001602   -0.001797   -0.001407
 step:   0.5827(harm=  0.6704)  dis= 0.00671  next Energy= -3639.445044 (dE=-0.414E-02)
 bond charge predicted
       N       E                     dE             d eps       ncg     rms          rms(c)
DAV:   1    -0.360153563363E+04    0.58130E-03   -0.93470E-01  5376   0.868E-01    0.317E-01
DAV:   2    -0.360153854456E+04   -0.29109E-02   -0.32386E-02  6144   0.137E-01    0.165E-01
DAV:   3    -0.360153846795E+04    0.76603E-04   -0.61281E-04  6656   0.247E-02    0.107E-01
DAV:   4    -0.360153841750E+04    0.50454E-04   -0.96828E-05  6528   0.939E-03    0.735E-02
DAV:   5    -0.360153839846E+04    0.19045E-04   -0.10119E-04  6272   0.100E-02    0.164E-02
DAV:   6    -0.360153840103E+04   -0.25737E-05   -0.23071E-05  6144   0.430E-03    0.658E-03
DAV:   7    -0.360153840070E+04    0.32685E-06   -0.13585E-06  5504   0.130E-03
 augmentation electrons   1811.87439443510     
 soft         electrons  0.000000000000000E+000
 total        electrons   1811.87439443510     
 augmentation electrons -6.953402095199267E-002
 soft         electrons  0.000000000000000E+000
 total        electrons -6.953402095199267E-002
 augmentation electrons   2316.45542734251     
 soft         electrons  0.000000000000000E+000
 total        electrons   2316.45542734251     
 augmentation electrons   2258.93826747051     
 soft         electrons  0.000000000000000E+000
 total        electrons   2258.93826747051     
 augmentation electrons   54.8332595967551     
 soft         electrons   1757.04109570752     
 total        electrons   1811.87435530427     
 augmentation electrons   38.0436675405982     
 soft         electrons   1757.04109570752     
 total        electrons   59.9304413154386     
 translations:           0           1           0
  37 F= -.36394440E+04 E0= -.36394440E+04  d E =-.305045E-02  mag=    60.0000
 curvature:  -2.17 expect dE=-0.292E-01 dE for cont linesearch -0.158E-03
 trial: gam= 0.89768 g(F)=  0.135E-01 g(S)=  0.000E+00 ort =-0.244E-02 (trialstep = 0.233E+00)
 search vector abs. value=  0.753E-01
 bond charge predicted
       N       E                     dE             d eps       ncg     rms          rms(c)
DAV:   1    -0.360153967337E+04   -0.12723E-02   -0.24342E-01  5504   0.451E-01    0.153E-01
DAV:   2    -0.360154035795E+04   -0.68458E-03   -0.79027E-03  6144   0.688E-02    0.829E-02
DAV:   3    -0.360154033177E+04    0.26179E-04   -0.15953E-04  6656   0.125E-02    0.545E-02
DAV:   4    -0.360154031330E+04    0.18475E-04   -0.38233E-05  6528   0.622E-03    0.319E-02
DAV:   5    -0.360154031234E+04    0.96440E-06   -0.22141E-05  6528   0.450E-03    0.661E-03
DAV:   6    -0.360154031249E+04   -0.15156E-06   -0.29263E-06  5376   0.172E-03
 augmentation electrons   1811.85808900965     
 soft         electrons  0.000000000000000E+000
 total        electrons   1811.85808900965     
 augmentation electrons -6.998913259395959E-002
 soft         electrons  0.000000000000000E+000
 total        electrons -6.998913259395959E-002
 augmentation electrons   2297.94484619667     
 soft         electrons  0.000000000000000E+000
 total        electrons   2297.94484619667     
 augmentation electrons   2240.42768632467     
 soft         electrons  0.000000000000000E+000
 total        electrons   2240.42768632467     
 augmentation electrons   54.8168726395139     
 soft         electrons   1757.04117781223     
 total        electrons   1811.85805045175     
 augmentation electrons   38.0428507084460     
 soft         electrons   1757.04117781223     
 total        electrons   59.9299861337334     
 translations:           0           1           0
  38 F= -.36394456E+04 E0= -.36394456E+04  d E =-.167626E-02  mag=    60.0000
 trial-energy change:   -0.001676  1 .order   -0.001882   -0.002630   -0.001134
 step:   0.4096(harm=  0.4096)  dis= 0.00415  next Energy= -3639.446270 (dE=-0.231E-02)
 bond charge predicted
       N       E                     dE             d eps       ncg     rms          rms(c)
DAV:   1    -0.360154038859E+04   -0.76259E-04   -0.13985E-01  5504   0.342E-01    0.117E-01
DAV:   2    -0.360154078275E+04   -0.39416E-03   -0.45446E-03  6144   0.522E-02    0.628E-02
DAV:   3    -0.360154076733E+04    0.15420E-04   -0.91324E-05  6656   0.950E-03    0.413E-02
DAV:   4    -0.360154075668E+04    0.10655E-04   -0.22429E-05  6528   0.476E-03    0.241E-02
DAV:   5    -0.360154075621E+04    0.47166E-06   -0.12763E-05  6528   0.342E-03    0.500E-03
DAV:   6    -0.360154075630E+04   -0.97236E-07   -0.16492E-06  4608   0.130E-03
 augmentation electrons   1811.84605554757     
 soft         electrons  0.000000000000000E+000
 total        electrons   1811.84605554757     
 augmentation electrons -7.029900796733080E-002
 soft         electrons  0.000000000000000E+000
 total        electrons -7.029900796733080E-002
 augmentation electrons   2284.89056207041     
 soft         electrons  0.000000000000000E+000
 total        electrons   2284.89056207041     
 augmentation electrons   2227.37340219841     
 soft         electrons  0.000000000000000E+000
 total        electrons   2227.37340219841     
 augmentation electrons   54.8047832929398     
 soft         electrons   1757.04123408097     
 total        electrons   1811.84601737391     
 augmentation electrons   38.0422748434032     
 soft         electrons   1757.04123408097     
[...]
 soft         electrons  0.000000000000000E+000
 total        electrons   2024.14578271529     
 augmentation electrons   54.7030686311044     
 soft         electrons   1757.04106199482     
 total        electrons   1811.74413062592     
 augmentation electrons   38.0481724691134     
 soft         electrons   1757.04106199482     
 total        electrons   59.9296172887713     
 translations:           0           1           0
  87 F= -.36395031E+04 E0= -.36395031E+04  d E =-.284144E-02  mag=    60.0000
 curvature:  -1.23 expect dE=-0.882E-02 dE for cont linesearch -0.227E-03
 ZBRENT: increasing intervall
 opt :   0.4348  next Energy= -3639.503600 (dE=-0.332E-02)
 bond charge predicted
       N       E                     dE             d eps       ncg     rms          rms(c)
DAV:   1    -0.360158872008E+04   -0.43865E-03   -0.15878E-01  5120   0.412E-01    0.119E-01
DAV:   2    -0.360158905690E+04   -0.33682E-03   -0.39454E-03  6144   0.554E-02    0.684E-02
DAV:   3    -0.360158904161E+04    0.15290E-04   -0.10645E-04  6912   0.108E-02    0.432E-02
DAV:   4    -0.360158902999E+04    0.11626E-04   -0.27860E-05  6528   0.591E-03    0.216E-02
DAV:   5    -0.360158902962E+04    0.36613E-06   -0.10791E-05  6656   0.325E-03    0.524E-03
DAV:   6    -0.360158902954E+04    0.77271E-07   -0.96064E-07  3712   0.121E-03
 augmentation electrons   1811.74431823896     
 soft         electrons  0.000000000000000E+000
 total        electrons   1811.74431823896     
 augmentation electrons -7.053340962137750E-002
 soft         electrons  0.000000000000000E+000
 total        electrons -7.053340962137750E-002
 augmentation electrons   2078.20504785467     
 soft         electrons  0.000000000000000E+000
 total        electrons   2078.20504785467     
 augmentation electrons   2020.68788798267     
 soft         electrons  0.000000000000000E+000
 total        electrons   2020.68788798267     
 augmentation electrons   54.7037945737458     
 soft         electrons   1757.04046775138     
 total        electrons   1811.74426232512     
 augmentation electrons   38.0484044539230     
 soft         electrons   1757.04046775138     
 total        electrons   59.9294357187236     
 translations:           0           1           0
  88 F= -.36395039E+04 E0= -.36395039E+04  d E =-.357805E-02  mag=    60.0000
 curvature:  -2.61 expect dE=-0.242E-01 dE for cont linesearch -0.654E-04
 trial: gam= 0.43249 g(F)=  0.930E-02 g(S)=  0.000E+00 ort = 0.176E-02 (trialstep = 0.261E+00)
 search vector abs. value=  0.340E-01
 bond charge predicted
       N       E                     dE             d eps       ncg     rms          rms(c)
DAV:   1    -0.360159062307E+04   -0.15934E-02   -0.14334E-01  5120   0.361E-01    0.103E-01
DAV:   2    -0.360159084974E+04   -0.22668E-03   -0.31287E-03  6272   0.497E-02    0.640E-02
DAV:   3    -0.360159082078E+04    0.28964E-04   -0.10807E-04  6912   0.110E-02    0.401E-02
DAV:   4    -0.360159081162E+04    0.91616E-05   -0.36881E-05  6784   0.621E-03    0.201E-02
DAV:   5    -0.360159081160E+04    0.18481E-07   -0.72302E-06  6528   0.255E-03
 augmentation electrons   1811.74360093958     
 soft         electrons  0.000000000000000E+000
 total        electrons   1811.74360093958     
 augmentation electrons -7.063507701143877E-002
 soft         electrons  0.000000000000000E+000
 total        electrons -7.063507701143877E-002
 augmentation electrons   2076.76948311862     
 soft         electrons  0.000000000000000E+000
 total        electrons   2076.76948311862     
 augmentation electrons   2019.25232324662     
 soft         electrons  0.000000000000000E+000
 total        electrons   2019.25232324662     
 augmentation electrons   54.7040227544564     
 soft         electrons   1757.03952222187     
 total        electrons   1811.74354497633     
 augmentation electrons   38.0487336055215     
 soft         electrons   1757.03952222187     
 total        electrons   59.9293340414238     
 translations:           0           1           0
  89 F= -.36395055E+04 E0= -.36395055E+04  d E =-.161888E-02  mag=    60.0000
 trial-energy change:   -0.001619  1 .order   -0.001920   -0.002628   -0.001213
 step:   0.4850(harm=  0.4850)  dis= 0.00141  next Energy= -3639.506295 (dE=-0.244E-02)
 bond charge predicted
       N       E                     dE             d eps       ncg     rms          rms(c)
DAV:   1    -0.360159103792E+04   -0.22630E-03   -0.10539E-01  5120   0.309E-01    0.891E-02
DAV:   2    -0.360159120442E+04   -0.16650E-03   -0.23225E-03  6272   0.430E-02    0.552E-02
DAV:   3    -0.360159118206E+04    0.22353E-04   -0.83000E-05  6912   0.964E-03    0.345E-02
DAV:   4    -0.360159117543E+04    0.66385E-05   -0.28119E-05  6784   0.541E-03    0.177E-02
DAV:   5    -0.360159117533E+04    0.96901E-07   -0.52920E-06  6272   0.219E-03
 augmentation electrons   1811.74299985659     
 soft         electrons  0.000000000000000E+000
 total        electrons   1811.74299985659     
 augmentation electrons -7.068475957370679E-002
 soft         electrons  0.000000000000000E+000
 total        electrons -7.068475957370679E-002
 augmentation electrons   2075.54912126953     
 soft         electrons  0.000000000000000E+000
 total        electrons   2075.54912126953     
 augmentation electrons   2018.03196139753     
 soft         electrons  0.000000000000000E+000
 total        electrons   2018.03196139753     
 augmentation electrons   54.7041865761577     
 soft         electrons   1757.03875726741     
 total        electrons   1811.74294384357     
 augmentation electrons   38.0490485030022     
 soft         electrons   1757.03875726741     
 total        electrons   59.9292843510852     
 translations:           0           1           0
  90 F= -.36395057E+04 E0= -.36395057E+04  d E =-.184787E-02  mag=    60.0000
 curvature:  -0.82 expect dE=-0.528E-02 dE for cont linesearch -0.928E-05
 trial: gam= 0.82448 g(F)=  0.644E-02 g(S)=  0.000E+00 ort =-0.620E-03 (trialstep = 0.306E+00)
 search vector abs. value=  0.285E-01
 bond charge predicted
       N       E                     dE             d eps       ncg     rms          rms(c)
DAV:   1    -0.360159180838E+04   -0.63296E-03   -0.15313E-01  5120   0.380E-01    0.112E-01
DAV:   2    -0.360159206873E+04   -0.26035E-03   -0.35284E-03  6400   0.531E-02    0.665E-02
DAV:   3    -0.360159203942E+04    0.29313E-04   -0.12676E-04  6912   0.118E-02    0.415E-02
DAV:   4    -0.360159203024E+04    0.91816E-05   -0.37229E-05  6784   0.628E-03    0.210E-02
DAV:   5    -0.360159203031E+04   -0.67201E-07   -0.74253E-06  6400   0.260E-03
 augmentation electrons   1811.74296936863     
 soft         electrons  0.000000000000000E+000
 total        electrons   1811.74296936863     
 augmentation electrons -7.077105505035741E-002
 soft         electrons  0.000000000000000E+000
 total        electrons -7.077105505035741E-002
 augmentation electrons   2075.10806272831     
 soft         electrons  0.000000000000000E+000
 total        electrons   2075.10806272831     
 augmentation electrons   2017.59090285631     
 soft         electrons  0.000000000000000E+000
 total        electrons   2017.59090285631     
 augmentation electrons   54.7048097734247     
 soft         electrons   1757.03810355496     
 total        electrons   1811.74291332839     
 augmentation electrons   38.0493674893627     
 soft         electrons   1757.03810355496     
 total        electrons   59.9291981289717     
 translations:           0           1           0
  91 F= -.36395065E+04 E0= -.36395065E+04  d E =-.780863E-03  mag=    60.0000
 trial-energy change:   -0.000781  1 .order   -0.001142   -0.001815   -0.000469
 step:   0.4125(harm=  0.4125)  dis= 0.00141  next Energy= -3639.506927 (dE=-0.122E-02)
 bond charge predicted
       N       E                     dE             d eps       ncg     rms          rms(c)
DAV:   1    -0.360159199647E+04    0.33765E-04   -0.18690E-02  5376   0.133E-01    0.397E-02
DAV:   2    -0.360159202836E+04   -0.31882E-04   -0.43913E-04  6400   0.189E-02    0.235E-02
DAV:   3    -0.360159202441E+04    0.39468E-05   -0.16321E-05  6912   0.428E-03    0.147E-02
DAV:   4    -0.360159202335E+04    0.10566E-05   -0.49139E-06  6528   0.227E-03    0.771E-03
DAV:   5    -0.360159202333E+04    0.21944E-07   -0.82478E-07  3456   0.916E-04
 augmentation electrons   1811.74297134278     
 soft         electrons  0.000000000000000E+000
 total        electrons   1811.74297134278     
 augmentation electrons -7.079588999253131E-002
 soft         electrons  0.000000000000000E+000
 total        electrons -7.079588999253131E-002
 augmentation electrons   2074.95391283320     
 soft         electrons  0.000000000000000E+000
 total        electrons   2074.95391283320     
 augmentation electrons   2017.43675296120     
 soft         electrons  0.000000000000000E+000
 total        electrons   2017.43675296120     
 augmentation electrons   54.7050074666791     
 soft         electrons   1757.03790782771     
 total        electrons   1811.74291529439     
 augmentation electrons   38.0494803884694     
 soft         electrons   1757.03790782771     
 total        electrons   59.9291733200169     
 translations:           0           1           0
  92 F= -.36395065E+04 E0= -.36395065E+04  d E =-.749904E-03  mag=    60.0000
 curvature:  -0.99 expect dE=-0.489E-02 dE for cont linesearch -0.674E-06
 trial: gam= 0.52934 g(F)=  0.492E-02 g(S)=  0.000E+00 ort = 0.139E-03 (trialstep = 0.327E+00)
 search vector abs. value=  0.131E-01
 bond charge predicted
       N       E                     dE             d eps       ncg     rms          rms(c)
DAV:   1    -0.360159294355E+04   -0.92020E-03   -0.79087E-02  5120   0.288E-01    0.876E-02
DAV:   2    -0.360159310581E+04   -0.16226E-03   -0.20516E-03  6400   0.407E-02    0.503E-02
DAV:   3    -0.360159309330E+04    0.12511E-04   -0.72449E-05  6656   0.863E-03    0.313E-02
DAV:   4    -0.360159308758E+04    0.57192E-05   -0.19504E-05  6528   0.465E-03    0.151E-02
DAV:   5    -0.360159308760E+04   -0.24243E-07   -0.48173E-06  6400   0.215E-03
 augmentation electrons   1811.74373434326     
 soft         electrons  0.000000000000000E+000
 total        electrons   1811.74373434326     
 augmentation electrons -7.077294541492901E-002
 soft         electrons  0.000000000000000E+000
 total        electrons -7.077294541492901E-002
 augmentation electrons   2075.15529408808     
 soft         electrons  0.000000000000000E+000
 total        electrons   2075.15529408808     
 augmentation electrons   2017.63813421608     
 soft         electrons  0.000000000000000E+000
 total        electrons   2017.63813421608     
 augmentation electrons   54.7055076518979     
 soft         electrons   1757.03817058102     
 total        electrons   1811.74367823292     
 augmentation electrons   38.0496267151782     
 soft         electrons   1757.03817058102     
 total        electrons   59.9291963718884     
 translations:           0           1           0
  93 F= -.36395078E+04 E0= -.36395078E+04  d E =-.134663E-02  mag=    60.0000
 trial-energy change:   -0.001347  1 .order   -0.001159   -0.001636   -0.000682
 step:   0.4203(harm=  0.5612)  dis= 0.00114  next Energy= -3639.507901 (dE=-0.145E-02)
 bond charge predicted
       N       E                     dE             d eps       ncg     rms          rms(c)
DAV:   1    -0.360159320359E+04   -0.11601E-03   -0.64524E-03  5376   0.821E-02    0.255E-02
DAV:   2    -0.360159321702E+04   -0.13431E-04   -0.17191E-04  6400   0.119E-02    0.146E-02
DAV:   3    -0.360159321577E+04    0.12479E-05   -0.63839E-06  6656   0.261E-03    0.902E-03
DAV:   4    -0.360159321526E+04    0.51474E-06   -0.16528E-06  4480   0.142E-03
 augmentation electrons   1811.74391323848     
 soft         electrons  0.000000000000000E+000
 total        electrons   1811.74391323848     
 augmentation electrons -7.080842625716276E-002
 soft         electrons  0.000000000000000E+000
 total        electrons -7.080842625716276E-002
 augmentation electrons   2075.21155765434     
 soft         electrons  0.000000000000000E+000
 total        electrons   2075.21155765434     
 augmentation electrons   2017.69439778234     
 soft         electrons  0.000000000000000E+000
 total        electrons   2017.69439778234     
 augmentation electrons   54.7056096272948     
 soft         electrons   1757.03824748493     
 total        electrons   1811.74385711222     
 augmentation electrons   38.0496210134540     
 soft         electrons   1757.03824748493     
 total        electrons   59.9291609220458     
 translations:           0           1           0
  94 F= -.36395080E+04 E0= -.36395080E+04  d E =-.155492E-02  mag=    60.0000
 curvature:  -0.47 expect dE=-0.139E-02 dE for cont linesearch -0.573E-04
 ZBRENT: increasing intervall
 opt :   0.6062  next Energy= -3639.508091 (dE=-0.164E-02)
 bond charge predicted
       N       E                     dE             d eps       ncg     rms          rms(c)
DAV:   1    -0.360159319220E+04    0.23572E-04   -0.25444E-02  5120   0.164E-01    0.496E-02
DAV:   2    -0.360159324460E+04   -0.52398E-04   -0.65770E-04  6400   0.230E-02    0.284E-02
DAV:   3    -0.360159324078E+04    0.38227E-05   -0.23643E-05  6656   0.491E-03    0.177E-02
DAV:   4    -0.360159323906E+04    0.17129E-05   -0.61141E-06  6528   0.259E-03    0.859E-03
DAV:   5    -0.360159323904E+04    0.18830E-07   -0.13751E-06  4352   0.120E-03
 augmentation electrons   1811.74433055449     
 soft         electrons  0.000000000000000E+000
 total        electrons   1811.74433055449     
 augmentation electrons -7.080553537381504E-002
 soft         electrons  0.000000000000000E+000
 total        electrons -7.080553537381504E-002
 augmentation electrons   2075.32281382379     
 soft         electrons  0.000000000000000E+000
 total        electrons   2075.32281382379     
 augmentation electrons   2017.80565395179     
 soft         electrons  0.000000000000000E+000
 total        electrons   2017.80565395179     
 augmentation electrons   54.7058778689622     
 soft         electrons   1757.03839653025     
 total        electrons   1811.74427439922     
 augmentation electrons   38.0496933098844     
 soft         electrons   1757.03839653025     
 total        electrons   59.9291638755994     
 translations:           0           1           0
  95 F= -.36395082E+04 E0= -.36395082E+04  d E =-.173474E-02  mag=    60.0000
 curvature:  -0.68 expect dE=-0.385E-02 dE for cont linesearch -0.776E-05
 trial: gam= 1.28161 g(F)=  0.568E-02 g(S)=  0.000E+00 ort =-0.386E-03 (trialstep = 0.191E+00)
 search vector abs. value=  0.261E-01
 bond charge predicted
       N       E                     dE             d eps       ncg     rms          rms(c)
DAV:   1    -0.360159388950E+04   -0.65044E-03   -0.49666E-02  5120   0.237E-01    0.731E-02
DAV:   2    -0.360159401407E+04   -0.12457E-03   -0.14323E-03  6144   0.332E-02    0.403E-02
DAV:   3    -0.360159400893E+04    0.51377E-05   -0.42543E-05  6912   0.663E-03    0.249E-02
DAV:   4    -0.360159400513E+04    0.37996E-05   -0.10388E-05  6656   0.351E-03    0.123E-02
DAV:   5    -0.360159400504E+04    0.91226E-07   -0.32438E-06  6144   0.178E-03
 augmentation electrons   1811.74557472190     
 soft         electrons  0.000000000000000E+000
 total        electrons   1811.74557472190     
 augmentation electrons -7.082717333478980E-002
 soft         electrons  0.000000000000000E+000
 total        electrons -7.082717333478980E-002
 augmentation electrons   2075.35282065141     
 soft         electrons  0.000000000000000E+000
 total        electrons   2075.35282065141     
 augmentation electrons   2017.83566077941     
 soft         electrons  0.000000000000000E+000
 total        electrons   2017.83566077941     
 augmentation electrons   54.7065607558508     
 soft         electrons   1757.03895765669     
 total        electrons   1811.74551841254     
 augmentation electrons   38.0496871366121     
 soft         electrons   1757.03895765669     
 total        electrons   59.9291423392160     
 translations:           0           1           0
  96 F= -.36395093E+04 E0= -.36395093E+04  d E =-.106676E-02  mag=    60.0000
 trial-energy change:   -0.001067  1 .order   -0.000793   -0.000992   -0.000595
 step:   0.4783(harm=  0.4783)  dis= 0.00191  next Energy= -3639.509427 (dE=-0.124E-02)
 bond charge predicted
       N       E                     dE             d eps       ncg     rms          rms(c)
DAV:   1    -0.360159418109E+04   -0.17595E-03   -0.11168E-01  5120   0.355E-01    0.110E-01
DAV:   2    -0.360159446132E+04   -0.28024E-03   -0.32246E-03  6144   0.499E-02    0.605E-02
DAV:   3    -0.360159444964E+04    0.11678E-04   -0.95870E-05  6912   0.998E-03    0.374E-02
DAV:   4    -0.360159444124E+04    0.84019E-05   -0.23682E-05  6656   0.529E-03    0.185E-02
DAV:   5    -0.360159444119E+04    0.50612E-07   -0.74724E-06  6400   0.268E-03
 augmentation electrons   1811.74740584699     
 soft         electrons  0.000000000000000E+000
 total        electrons   1811.74740584699     
 augmentation electrons -7.090553976144756E-002
 soft         electrons  0.000000000000000E+000
 total        electrons -7.090553976144756E-002
 augmentation electrons   2075.37825305824     
 soft         electrons  0.000000000000000E+000
 total        electrons   2075.37825305824     
 augmentation electrons   2017.86109318624     
 soft         electrons  0.000000000000000E+000
 total        electrons   2017.86109318624     
 augmentation electrons   54.7075594289860     
 soft         electrons   1757.03978988953     
 total        electrons   1811.74734931852     
 augmentation electrons   38.0496327807369     
 soft         electrons   1757.03978988953     
 total        electrons   59.9290641296019     
 translations:           0           1           0
  97 F= -.36395101E+04 E0= -.36395101E+04  d E =-.195876E-02  mag=    60.0000
 curvature:  -1.21 expect dE=-0.577E-02 dE for cont linesearch -0.645E-06
 trial: gam= 0.56029 g(F)=  0.478E-02 g(S)=  0.000E+00 ort = 0.118E-03 (trialstep = 0.249E+00)
 search vector abs. value=  0.131E-01
 bond charge predicted
       N       E                     dE             d eps       ncg     rms          rms(c)
DAV:   1    -0.360159507581E+04   -0.63456E-03   -0.45833E-02  5120   0.224E-01    0.681E-02
DAV:   2    -0.360159517713E+04   -0.10132E-03   -0.13105E-03  6272   0.331E-02    0.399E-02
DAV:   3    -0.360159516792E+04    0.92144E-05   -0.44480E-05  6912   0.697E-03    0.249E-02
DAV:   4    -0.360159516378E+04    0.41381E-05   -0.13352E-05  6656   0.381E-03    0.124E-02
DAV:   5    -0.360159516348E+04    0.30127E-06   -0.28089E-06  4864   0.169E-03
 augmentation electrons   1811.74773400639     
 soft         electrons  0.000000000000000E+000
 total        electrons   1811.74773400639     
 augmentation electrons -7.100859885375027E-002
 soft         electrons  0.000000000000000E+000
 total        electrons -7.100859885375027E-002
 augmentation electrons   2074.65203597057     
 soft         electrons  0.000000000000000E+000
 total        electrons   2074.65203597057     
 augmentation electrons   2017.13487609857     
 soft         electrons  0.000000000000000E+000
 total        electrons   2017.13487609857     
 augmentation electrons   54.7075844417927     
 soft         electrons   1757.04009290745     
 total        electrons   1811.74767734925     
 augmentation electrons   38.0494431772701     
 soft         electrons   1757.04009290745     
 total        electrons   59.9289611380695     
 translations:           0           1           0
  98 F= -.36395112E+04 E0= -.36395112E+04  d E =-.106779E-02  mag=    60.0000
 trial-energy change:   -0.001068  1 .order   -0.000878   -0.001205   -0.000551
 step:   0.3144(harm=  0.4585)  dis= 0.00079  next Energy= -3639.511291 (dE=-0.114E-02)
 reached required accuracy - stopping structural energy minimisation
 writing wavefunctions
