 ----------------------------------------------------
    OOO  PPPP  EEEEE N   N M   M PPPP
   O   O P   P E     NN  N MM MM P   P
   O   O PPPP  EEEEE N N N M M M PPPP   -- VERSION
   O   O P     E     N  NN M   M P
    OOO  P     EEEEE N   N M   M P
 ----------------------------------------------------
 running  512 mpi-ranks, with    1 threads/rank
 distrk:  each k-point on  512 cores,    1 groups
 distr:  one band on    4 cores,  128 groups
 vasp.6.3.2 27Jun22 (build Nov 12 2024 19:13:04) complex                        
  
 POSCAR found type information on POSCAR MnBrN C H 
 POSCAR found :  5 types and     636 ions
 scaLAPACK will be used
 LDA part: xc-table for Pade appr. of Perdew
 POSCAR, INCAR and KPOINTS ok, starting setup
 FFT: planning ... GRIDC
 FFT: planning ... GRID_SOFT
 FFT: planning ... GRID
 WAVECAR not read
 entering main loop
       N       E                     dE             d eps       ncg     rms          rms(c)
DAV:   1     0.987383705155E+04    0.98738E+04   -0.80684E+05  5376   0.120E+03
DAV:   2    -0.260984923299E+04   -0.12484E+05   -0.12040E+05  6272   0.260E+02
DAV:   3    -0.386690035854E+04   -0.12571E+04   -0.12454E+04  6400   0.875E+01
DAV:   4    -0.390090764142E+04   -0.34007E+02   -0.33746E+02  6784   0.162E+01
DAV:   5    -0.390184019647E+04   -0.93256E+00   -0.93143E+00  6656   0.260E+00    0.173E+02
DAV:   6    -0.463762721217E+04   -0.73579E+03   -0.45050E+03  6400   0.480E+01    0.416E+02
DAV:   7    -0.404370201632E+04    0.59393E+03   -0.76355E+02  6528   0.280E+01    0.226E+02
DAV:   8    -0.359205361675E+04    0.45165E+03   -0.11342E+03  6400   0.450E+01    0.113E+02
DAV:   9    -0.367657143579E+04   -0.84518E+02   -0.99784E+02  6272   0.137E+01    0.110E+02
DAV:  10    -0.359071148665E+04    0.85860E+02   -0.25240E+02  6528   0.177E+01    0.969E+01
DAV:  11    -0.362805239868E+04   -0.37341E+02   -0.25357E+02  6400   0.117E+01    0.104E+02
DAV:  12    -0.360914427546E+04    0.18908E+02   -0.22874E+02  6400   0.114E+01    0.994E+01
DAV:  13    -0.362551595968E+04   -0.16372E+02   -0.47953E+02  6016   0.104E+01    0.870E+01
DAV:  14    -0.360276893733E+04    0.22747E+02   -0.30303E+02  6400   0.118E+01    0.928E+01
DAV:  15    -0.360632140645E+04   -0.35525E+01   -0.28989E+02  6272   0.857E+00    0.811E+01
DAV:  16    -0.358245680077E+04    0.23865E+02   -0.79208E+01  5888   0.511E+00    0.733E+01
DAV:  17    -0.357383412852E+04    0.86227E+01   -0.83370E+01  6400   0.314E+00    0.554E+01
DAV:  18    -0.357314326999E+04    0.69086E+00   -0.19712E+01  5632   0.128E+00    0.505E+01
DAV:  19    -0.357265015670E+04    0.49311E+00   -0.51755E+00  5888   0.853E-01    0.545E+01
DAV:  20    -0.357217423464E+04    0.47592E+00   -0.64281E+00  5888   0.685E-01    0.511E+01
DAV:  21    -0.357243336924E+04   -0.25913E+00   -0.22138E-01  5632   0.483E-01    0.520E+01
DAV:  22    -0.357227446029E+04    0.15891E+00   -0.41944E-01  6016   0.305E-01    0.519E+01
DAV:  23    -0.357223400905E+04    0.40451E-01   -0.36836E-01  5632   0.340E-01    0.508E+01
DAV:  24    -0.357217863385E+04    0.55375E-01   -0.40650E-02  5632   0.133E-01    0.508E+01
DAV:  25    -0.357201833789E+04    0.16030E+00   -0.12239E+00  6016   0.203E-01    0.508E+01
DAV:  26    -0.357182711002E+04    0.19123E+00   -0.60077E-01  5632   0.288E-01    0.495E+01
DAV:  27    -0.357244628105E+04   -0.61917E+00   -0.17968E+00  5632   0.280E-01    0.483E+01
DAV:  28    -0.357228856223E+04    0.15772E+00   -0.33816E+00  5888   0.349E-01    0.501E+01
DAV:  29    -0.357225172254E+04    0.36840E-01   -0.55362E-02  5632   0.263E-01    0.501E+01
DAV:  30    -0.357231558402E+04   -0.63861E-01   -0.11175E+00  6400   0.125E-01    0.503E+01
DAV:  31    -0.357239192853E+04   -0.76345E-01   -0.32924E+00  6016   0.312E-01    0.502E+01
DAV:  32    -0.357258875044E+04   -0.19682E+00   -0.19419E+00  5888   0.372E-01    0.487E+01
DAV:  33    -0.357248019064E+04    0.10856E+00   -0.35872E-01  5632   0.321E-01    0.502E+01
DAV:  34    -0.357373539460E+04   -0.12552E+01   -0.46331E+00  6272   0.479E-01    0.478E+01
DAV:  35    -0.357389245605E+04   -0.15706E+00   -0.92310E-02  5632   0.307E-01    0.476E+01
DAV:  36    -0.357362425891E+04    0.26820E+00   -0.24040E+00  6272   0.342E-01    0.470E+01
DAV:  37    -0.357334177744E+04    0.28248E+00   -0.26061E+00  5888   0.445E-01    0.481E+01
DAV:  38    -0.357378136176E+04   -0.43958E+00   -0.14998E+00  6272   0.362E-01    0.488E+01
DAV:  39    -0.357388855234E+04   -0.10719E+00   -0.18025E-01  5888   0.233E-01    0.484E+01
DAV:  40    -0.357388589528E+04    0.26571E-02   -0.83943E-03  6144   0.838E-02    0.484E+01
DAV:  41    -0.357397680059E+04   -0.90905E-01   -0.47774E-01  6528   0.904E-02    0.483E+01
DAV:  42    -0.357394824726E+04    0.28553E-01   -0.90601E-02  5632   0.110E-01    0.483E+01
DAV:  43    -0.357431524904E+04   -0.36700E+00   -0.11559E+00  6528   0.187E-01    0.457E+01
DAV:  44    -0.357450471920E+04   -0.18947E+00   -0.52796E-02  5632   0.212E-01    0.455E+01
DAV:  45    -0.357444017725E+04    0.64542E-01   -0.89870E-02  5888   0.964E-02    0.455E+01
DAV:  46    -0.357488929860E+04   -0.44912E+00   -0.39543E-01  6144   0.183E-01    0.443E+01
DAV:  47    -0.357481006260E+04    0.79236E-01   -0.12568E-01  6272   0.168E-01    0.443E+01
DAV:  48    -0.357481977128E+04   -0.97087E-02   -0.62317E-02  5760   0.888E-02    0.443E+01
DAV:  49    -0.357506605730E+04   -0.24629E+00   -0.87825E-02  6400   0.120E-01    0.441E+01
DAV:  50    -0.357505464148E+04    0.11416E-01   -0.39258E-03  5632   0.515E-02    0.442E+01
DAV:  51    -0.357468731185E+04    0.36733E+00   -0.82357E+00  5760   0.232E+00    0.430E+01
DAV:  52    -0.357466747052E+04    0.19841E-01   -0.59910E-01  5760   0.720E-01    0.429E+01
DAV:  53    -0.357441270569E+04    0.25476E+00   -0.62734E-01  6400   0.257E-01    0.432E+01
DAV:  54    -0.357491860270E+04   -0.50590E+00   -0.61006E+00  6016   0.501E-01    0.449E+01
DAV:  55    -0.357475300795E+04    0.16559E+00   -0.20081E-01  5504   0.390E-01    0.444E+01
DAV:  56    -0.359217051120E+04   -0.17418E+02   -0.14133E+02  6272   0.716E+00    0.747E+01
DAV:  57    -0.358221189724E+04    0.99586E+01   -0.12144E+02  6016   0.825E+00    0.316E+01
DAV:  58    -0.358389773664E+04   -0.16858E+01   -0.11964E+01  6528   0.224E+00    0.325E+01
DAV:  59    -0.358341776766E+04    0.47997E+00   -0.38837E+00  6528   0.150E+00    0.314E+01
DAV:  60    -0.357630471311E+04    0.71131E+01   -0.69916E+00  5504   0.210E+00    0.326E+01
DAV:  61    -0.355899793644E+04    0.17307E+02   -0.13322E+01  5888   0.320E+00    0.336E+01
DAV:  62    -0.356039380242E+04   -0.13959E+01   -0.13713E+01  5888   0.150E+00    0.309E+01
DAV:  63    -0.356396784205E+04   -0.35740E+01   -0.38074E-01  6016   0.523E-01    0.293E+01
DAV:  64    -0.356918823621E+04   -0.52204E+01   -0.69337E+00  6400   0.719E-01    0.273E+01
DAV:  65    -0.356927743436E+04   -0.89198E-01   -0.17459E-01  5632   0.360E-01    0.271E+01
DAV:  66    -0.357730551629E+04   -0.80281E+01   -0.14296E+01  5888   0.178E+00    0.291E+01
DAV:  67    -0.358150495207E+04   -0.41994E+01   -0.12069E+00  5888   0.865E-01    0.278E+01
DAV:  68    -0.358485732967E+04   -0.33524E+01   -0.29720E+00  6400   0.131E+00    0.244E+01
DAV:  69    -0.358635654046E+04   -0.14992E+01   -0.68651E-01  6400   0.706E-01    0.249E+01
DAV:  70    -0.358682329370E+04   -0.46675E+00   -0.44015E-01  6016   0.459E-01    0.266E+01
DAV:  71    -0.358530935093E+04    0.15139E+01   -0.13560E+01  6400   0.248E+00    0.262E+01
DAV:  72    -0.358735897965E+04   -0.20496E+01   -0.78498E+00  6016   0.125E+00    0.222E+01
DAV:  73    -0.358889318006E+04   -0.15342E+01   -0.11885E+00  6400   0.928E-01    0.212E+01
DAV:  74    -0.358957703972E+04   -0.68386E+00   -0.64197E-01  6656   0.779E-01    0.208E+01
DAV:  75    -0.358816112823E+04    0.14159E+01   -0.19323E+00  6272   0.861E-01    0.243E+01
DAV:  76    -0.359033689022E+04   -0.21758E+01   -0.40659E+00  6784   0.222E+00    0.233E+01
DAV:  77    -0.359202858759E+04   -0.16917E+01   -0.22048E+00  6528   0.152E+00    0.213E+01
DAV:  78    -0.359190331067E+04    0.12528E+00   -0.37325E+00  6656   0.103E+00    0.216E+01
DAV:  79    -0.359064933988E+04    0.12540E+01   -0.24357E+00  6144   0.641E-01    0.169E+01
DAV:  80    -0.359178131475E+04   -0.11320E+01   -0.13741E+00  6272   0.731E-01    0.137E+01
DAV:  81    -0.359217940810E+04   -0.39809E+00   -0.91858E+00  6400   0.154E+00    0.138E+01
DAV:  82    -0.359339484257E+04   -0.12154E+01   -0.15928E+00  6528   0.647E-01    0.130E+01
DAV:  83    -0.359369016276E+04   -0.29532E+00   -0.42452E+00  6912   0.113E+00    0.125E+01
DAV:  84    -0.359308596613E+04    0.60420E+00   -0.20857E+00  6400   0.125E+00    0.125E+01
DAV:  85    -0.359230922232E+04    0.77674E+00   -0.54234E+00  6400   0.138E+00    0.186E+01
DAV:  86    -0.359528618758E+04   -0.29770E+01   -0.95713E+00  6016   0.222E+00    0.111E+01
DAV:  87    -0.359511955108E+04    0.16664E+00   -0.90598E-01  6272   0.718E-01    0.111E+01
DAV:  88    -0.359356878773E+04    0.15508E+01   -0.31604E+00  6400   0.993E-01    0.123E+01
DAV:  89    -0.359225720320E+04    0.13116E+01   -0.11287E+00  6272   0.543E-01    0.133E+01
DAV:  90    -0.359247701803E+04   -0.21981E+00   -0.49025E-02  6016   0.192E-01    0.132E+01
DAV:  91    -0.359708400920E+04   -0.46070E+01   -0.21659E+01  6400   0.305E+00    0.928E+00
DAV:  92    -0.359795174885E+04   -0.86774E+00   -0.12899E+00  6016   0.858E-01    0.784E+00
DAV:  93    -0.359830627746E+04   -0.35453E+00   -0.15947E+00  6912   0.995E-01    0.654E+00
DAV:  94    -0.359857236453E+04   -0.26609E+00   -0.17234E+00  6912   0.944E-01    0.572E+00
DAV:  95    -0.359878264546E+04   -0.21028E+00   -0.13677E+00  6912   0.662E-01    0.501E+00
DAV:  96    -0.359898407404E+04   -0.20143E+00   -0.24185E+00  6528   0.936E-01    0.398E+00
DAV:  97    -0.359914611856E+04   -0.16204E+00   -0.28168E-01  6144   0.485E-01    0.334E+00
DAV:  98    -0.359919705136E+04   -0.50933E-01   -0.39378E-01  6912   0.464E-01    0.284E+00
DAV:  99    -0.359921343855E+04   -0.16387E-01   -0.39812E-01  6784   0.455E-01    0.248E+00
DAV: 100    -0.359925150637E+04   -0.38068E-01   -0.35867E-01  6784   0.368E-01    0.220E+00
DAV: 101    -0.359927588410E+04   -0.24378E-01   -0.55144E-01  6400   0.398E-01    0.207E+00
DAV: 102    -0.359931436220E+04   -0.38478E-01   -0.12697E-01  6144   0.213E-01    0.199E+00
DAV: 103    -0.359932498318E+04   -0.10621E-01   -0.14913E-01  7040   0.175E-01    0.197E+00
DAV: 104    -0.359933047678E+04   -0.54936E-02   -0.42133E-01  6912   0.365E-01    0.198E+00
DAV: 105    -0.359934137512E+04   -0.10898E-01   -0.60082E-01  7040   0.392E-01    0.210E+00
DAV: 106    -0.359938590287E+04   -0.44528E-01   -0.97721E-02  6144   0.196E-01    0.218E+00
DAV: 107    -0.359940002547E+04   -0.14123E-01   -0.29304E-02  5888   0.975E-02    0.219E+00
DAV: 108    -0.359941002051E+04   -0.99950E-02   -0.15666E-01  6400   0.193E-01    0.225E+00
DAV: 109    -0.359942361324E+04   -0.13593E-01   -0.15272E-01  6912   0.206E-01    0.229E+00
DAV: 110    -0.359943949636E+04   -0.15883E-01   -0.57337E-02  6272   0.132E-01    0.230E+00
DAV: 111    -0.359936887731E+04    0.70619E-01   -0.17041E+00  6656   0.818E-01    0.233E+00
DAV: 112    -0.359946425161E+04   -0.95374E-01   -0.91466E-02  5504   0.265E-01    0.217E+00
DAV: 113    -0.359946886833E+04   -0.46167E-02   -0.60165E-02  6912   0.171E-01    0.208E+00
DAV: 114    -0.359946006281E+04    0.88055E-02   -0.72067E-02  6400   0.223E-01    0.193E+00
DAV: 115    -0.359945476271E+04    0.53001E-02   -0.68153E-02  7040   0.210E-01    0.180E+00
DAV: 116    -0.359929079765E+04    0.16397E+00   -0.10694E+00  6400   0.821E-01    0.140E+00
DAV: 117    -0.359939015374E+04   -0.99356E-01   -0.81934E-02  5632   0.208E-01    0.121E+00
DAV: 118    -0.359940710643E+04   -0.16953E-01   -0.61447E-02  6912   0.120E-01    0.103E+00
DAV: 119    -0.359942107230E+04   -0.13966E-01   -0.12975E-01  6528   0.145E-01    0.881E-01
DAV: 120    -0.359943291789E+04   -0.11846E-01   -0.88555E-02  6528   0.125E-01    0.786E-01
DAV: 121    -0.359941584913E+04    0.17069E-01   -0.31407E-01  6400   0.457E-01    0.523E-01
DAV: 122    -0.359944789994E+04   -0.32051E-01   -0.47120E-02  5632   0.156E-01    0.439E-01
DAV: 123    -0.359945293003E+04   -0.50301E-02   -0.64489E-02  6656   0.955E-02    0.437E-01
DAV: 124    -0.359945732773E+04   -0.43977E-02   -0.11566E-01  6656   0.127E-01    0.406E-01
DAV: 125    -0.359946189468E+04   -0.45669E-02   -0.15316E-01  6784   0.143E-01    0.388E-01
DAV: 126    -0.359947114526E+04   -0.92506E-02   -0.16491E-01  6912   0.192E-01    0.289E-01
DAV: 127    -0.359947579709E+04   -0.46518E-02   -0.18687E-01  6912   0.157E-01    0.318E-01
DAV: 128    -0.359948902082E+04   -0.13224E-01   -0.17834E-02  5632   0.880E-02    0.251E-01
DAV: 129    -0.359949248392E+04   -0.34631E-02   -0.11108E-01  6400   0.131E-01    0.256E-01
DAV: 130    -0.359949846511E+04   -0.59812E-02   -0.81984E-02  6784   0.958E-02    0.231E-01
DAV: 131    -0.359950263523E+04   -0.41701E-02   -0.18513E-02  6272   0.964E-02    0.213E-01
DAV: 132    -0.359950548722E+04   -0.28520E-02   -0.51946E-02  6400   0.692E-02    0.204E-01
DAV: 133    -0.359950929152E+04   -0.38043E-02   -0.10610E-01  6400   0.898E-02    0.179E-01
DAV: 134    -0.359951295584E+04   -0.36643E-02   -0.11318E-01  6400   0.879E-02    0.174E-01
DAV: 135    -0.359951887348E+04   -0.59176E-02   -0.54681E-02  6528   0.780E-02    0.140E-01
DAV: 136    -0.359951968320E+04   -0.80972E-03   -0.14329E-01  6400   0.104E-01    0.159E-01
DAV: 137    -0.359952628817E+04   -0.66050E-02   -0.18276E-02  6144   0.613E-02    0.986E-02
DAV: 138    -0.359952718418E+04   -0.89602E-03   -0.60780E-02  6400   0.649E-02    0.952E-02
DAV: 139    -0.359952882758E+04   -0.16434E-02   -0.44266E-02  6784   0.551E-02    0.992E-02
DAV: 140    -0.359953124294E+04   -0.24154E-02   -0.14881E-02  6272   0.407E-02    0.620E-02
DAV: 141    -0.359953181872E+04   -0.57578E-03   -0.21558E-02  6400   0.374E-02    0.659E-02
DAV: 142    -0.359953293662E+04   -0.11179E-02   -0.40693E-03  6016   0.313E-02    0.497E-02
DAV: 143    -0.359953317460E+04   -0.23798E-03   -0.15602E-02  6272   0.359E-02    0.487E-02
DAV: 144    -0.359953373966E+04   -0.56506E-03   -0.66194E-03  6528   0.245E-02    0.431E-02
DAV: 145    -0.359953406182E+04   -0.32216E-03   -0.88056E-03  6400   0.253E-02    0.452E-02
DAV: 146    -0.359953413355E+04   -0.71736E-04   -0.15281E-02  6400   0.341E-02    0.483E-02
DAV: 147    -0.359953461708E+04   -0.48353E-03   -0.86634E-03  6528   0.244E-02    0.423E-02
DAV: 148    -0.359953499797E+04   -0.38089E-03   -0.61316E-03  6400   0.215E-02    0.368E-02
DAV: 149    -0.359953504335E+04   -0.45382E-04   -0.10259E-02  6400   0.277E-02    0.394E-02
DAV: 150    -0.359953510793E+04   -0.64583E-04   -0.11266E-02  6400   0.277E-02    0.381E-02
DAV: 151    -0.359953584790E+04   -0.73997E-03   -0.81062E-04  5632   0.244E-02    0.200E-02
DAV: 152    -0.359953590460E+04   -0.56700E-04   -0.13685E-03  6400   0.105E-02    0.198E-02
DAV: 153    -0.359953597800E+04   -0.73402E-04   -0.22116E-03  6400   0.145E-02    0.229E-02
DAV: 154    -0.359953606676E+04   -0.88764E-04   -0.12085E-03  6400   0.102E-02    0.221E-02
DAV: 155    -0.359953615548E+04   -0.88719E-04   -0.89381E-04  6400   0.995E-03    0.190E-02
DAV: 156    -0.359953599077E+04    0.16471E-03   -0.67222E-03  6272   0.276E-02    0.335E-02
DAV: 157    -0.359953620196E+04   -0.21119E-03   -0.31712E-03  6400   0.188E-02    0.274E-02
DAV: 158    -0.359953605593E+04    0.14603E-03   -0.72140E-03  6400   0.237E-02    0.332E-02
DAV: 159    -0.359953636154E+04   -0.30561E-03   -0.23813E-03  6272   0.155E-02    0.247E-02
DAV: 160    -0.359953615473E+04    0.20682E-03   -0.68227E-03  6400   0.234E-02    0.339E-02
DAV: 161    -0.359953659496E+04   -0.44023E-03   -0.35125E-04  5632   0.175E-02    0.180E-02
DAV: 162    -0.359953661589E+04   -0.20936E-04   -0.50567E-04  6656   0.624E-03    0.151E-02
DAV: 163    -0.359953661882E+04   -0.29288E-05   -0.92308E-04  6400   0.860E-03    0.121E-02
DAV: 164    -0.359953664245E+04   -0.23631E-04   -0.63419E-04  6400   0.817E-03    0.118E-02
DAV: 165    -0.359953667689E+04   -0.34438E-04   -0.20196E-04  6016   0.574E-03    0.752E-03
DAV: 166    -0.359953668337E+04   -0.64813E-05   -0.34576E-04  6272   0.513E-03    0.788E-03
DAV: 167    -0.359953669469E+04   -0.11318E-04   -0.18719E-04  6400   0.417E-03    0.656E-03
DAV: 168    -0.359953670008E+04   -0.53903E-05   -0.20028E-04  5632   0.355E-03    0.656E-03
DAV: 169    -0.359953670790E+04   -0.78167E-05   -0.11828E-04  6272   0.312E-03    0.602E-03
DAV: 170    -0.359953670963E+04   -0.17337E-05   -0.21291E-04  6016   0.435E-03    0.582E-03
DAV: 171    -0.359953671394E+04   -0.43040E-05   -0.15651E-04  6400   0.518E-03    0.588E-03
DAV: 172    -0.359953671452E+04   -0.58004E-06   -0.16318E-04  6144   0.425E-03    0.741E-03
DAV: 173    -0.359953672348E+04   -0.89684E-05   -0.89069E-05  6272   0.328E-03    0.663E-03
DAV: 174    -0.359953672669E+04   -0.32083E-05   -0.11311E-04  5504   0.321E-03    0.588E-03
DAV: 175    -0.359953671878E+04    0.79160E-05   -0.29393E-04  6400   0.567E-03    0.643E-03
DAV: 176    -0.359953673416E+04   -0.15382E-04   -0.91495E-05  6272   0.355E-03    0.442E-03
DAV: 177    -0.359953674242E+04   -0.82637E-05   -0.36010E-05  6016   0.233E-03    0.313E-03
DAV: 178    -0.359953674140E+04    0.10237E-05   -0.98010E-05  6144   0.285E-03    0.380E-03
DAV: 179    -0.359953674303E+04   -0.16324E-05   -0.74163E-05  5632   0.236E-03    0.360E-03
DAV: 180    -0.359953674727E+04   -0.42360E-05   -0.25550E-05  6016   0.210E-03    0.263E-03
DAV: 181    -0.359953674892E+04   -0.16492E-05   -0.22373E-05  5376   0.157E-03    0.218E-03
DAV: 182    -0.359953675009E+04   -0.11786E-05   -0.15136E-05  5504   0.149E-03    0.184E-03
DAV: 183    -0.359953674870E+04    0.13927E-05   -0.42012E-05  5632   0.219E-03    0.248E-03
DAV: 184    -0.359953675042E+04   -0.17152E-05   -0.22791E-05  5248   0.147E-03    0.214E-03
DAV: 185    -0.359953675278E+04   -0.23679E-05   -0.83911E-06  5504   0.130E-03    0.155E-03
DAV: 186    -0.359953675364E+04   -0.85341E-06   -0.87050E-06  5248   0.105E-03
 augmentation electrons   1811.87637917396     
 soft         electrons  0.000000000000000E+000
 total        electrons   1811.87637917396     
 augmentation electrons -5.992772551379055E-002
 soft         electrons  0.000000000000000E+000
 total        electrons -5.992772551379055E-002
 augmentation electrons   1923.93918884376     
 soft         electrons  0.000000000000000E+000
 total        electrons   1923.93918884376     
 augmentation electrons   1866.42202897176     
 soft         electrons  0.000000000000000E+000
 total        electrons   1866.42202897176     
 augmentation electrons   54.7688228744736     
 soft         electrons   1757.10746744324     
 total        electrons   1811.87629031772     
 augmentation electrons   27.1277091713819     
 soft         electrons   1757.10746744324     
 total        electrons   43.9400438263350     
 translations:           0           1           0
   1 F= -.36374390E+04 E0= -.36374390E+04  d E =-.363744E+04  mag=    44.0000
 curvature:   0.00 expect dE= 0.000E+00 dE for cont linesearch  0.000E+00
 trial: gam= 0.00000 g(F)=  0.123E+00 g(S)=  0.000E+00 ort = 0.000E+00 (trialstep = 0.100E+01)
 search vector abs. value=  0.123E+00
 bond charge predicted
       N       E                     dE             d eps       ncg     rms          rms(c)
DAV:   1    -0.359958218995E+04   -0.45437E-01   -0.88971E+00  5376   0.208E+00    0.142E+00
DAV:   2    -0.359961589853E+04   -0.33709E-01   -0.41451E-01  5888   0.445E-01    0.822E-01
DAV:   3    -0.359961563222E+04    0.26631E-03   -0.13430E-02  5632   0.108E-01    0.451E-01
DAV:   4    -0.359961511132E+04    0.52090E-03   -0.12109E-03  6784   0.256E-02    0.305E-01
DAV:   5    -0.359961463143E+04    0.47989E-03   -0.14714E-03  6272   0.322E-02    0.130E-01
DAV:   6    -0.359961466780E+04   -0.36374E-04   -0.62386E-04  5632   0.222E-02    0.326E-02
DAV:   7    -0.359961466787E+04   -0.72250E-07   -0.57205E-05  6272   0.631E-03    0.213E-02
DAV:   8    -0.359961466686E+04    0.10168E-05   -0.87339E-06  6144   0.240E-03    0.128E-02
DAV:   9    -0.359961466724E+04   -0.38464E-06   -0.12948E-05  6912   0.258E-03    0.620E-03
DAV:  10    -0.359961466812E+04   -0.87325E-06   -0.63708E-06  6400   0.178E-03
 augmentation electrons   1811.87462762909     
 soft         electrons  0.000000000000000E+000
 total        electrons   1811.87462762909     
 augmentation electrons -5.953912568577239E-002
 soft         electrons  0.000000000000000E+000
 total        electrons -5.953912568577239E-002
 augmentation electrons   1911.65711895781     
 soft         electrons  0.000000000000000E+000
 total        electrons   1911.65711895781     
 augmentation electrons   1854.13995908581     
 soft         electrons  0.000000000000000E+000
 total        electrons   1854.13995908581     
 augmentation electrons   54.7789005420176     
 soft         electrons   1757.09564465130     
 total        electrons   1811.87454519332     
 augmentation electrons   27.1370738463403     
 soft         electrons   1757.09564465130     
 total        electrons   43.9404322857913     
 translations:           0           1           0
   2 F= -.36375192E+04 E0= -.36375192E+04  d E =-.801947E-01  mag=    44.0000
 trial-energy change:   -0.080195  1 .order   -0.084030   -0.122929   -0.045130
 step:   1.5801(harm=  1.5801)  dis= 0.03665  next Energy= -3637.536100 (dE=-0.971E-01)
 bond charge predicted
       N       E                     dE             d eps       ncg     rms          rms(c)
DAV:   1    -0.359961443627E+04    0.23097E-03   -0.29875E+00  5504   0.121E+00    0.823E-01
DAV:   2    -0.359962583501E+04   -0.11399E-01   -0.13974E-01  6016   0.256E-01    0.468E-01
DAV:   3    -0.359962573321E+04    0.10180E-03   -0.44253E-03  5632   0.626E-02    0.258E-01
DAV:   4    -0.359962556409E+04    0.16912E-03   -0.39906E-04  6912   0.147E-02    0.174E-01
DAV:   5    -0.359962540576E+04    0.15833E-03   -0.49175E-04  6272   0.184E-02    0.758E-02
DAV:   6    -0.359962541954E+04   -0.13775E-04   -0.21603E-04  5760   0.127E-02    0.187E-02
DAV:   7    -0.359962542111E+04   -0.15733E-05   -0.21132E-05  6144   0.374E-03    0.125E-02
DAV:   8    -0.359962542187E+04   -0.75539E-06   -0.52303E-06  6400   0.150E-03
 augmentation electrons   1811.87252252788     
 soft         electrons  0.000000000000000E+000
 total        electrons   1811.87252252788     
 augmentation electrons -5.941977871921680E-002
 soft         electrons  0.000000000000000E+000
 total        electrons -5.941977871921680E-002
 augmentation electrons   1908.04170070701     
 soft         electrons  0.000000000000000E+000
 total        electrons   1908.04170070701     
 augmentation electrons   1850.52454083501     
 soft         electrons  0.000000000000000E+000
 total        electrons   1850.52454083501     
 augmentation electrons   54.7835612414854     
 soft         electrons   1757.08888259355     
 total        electrons   1811.87244383503     
 augmentation electrons   27.1419330339340     
 soft         electrons   1757.08888259355     
 total        electrons   43.9405515911669     
 translations:           0           1           0
   3 F= -.36375307E+04 E0= -.36375307E+04  d E =-.917610E-01  mag=    44.0000
 curvature:  -0.79 expect dE=-0.230E+00 dE for cont linesearch -0.455E-04
 trial: gam= 2.34187 g(F)=  0.291E+00 g(S)=  0.000E+00 ort = 0.266E-02 (trialstep = 0.140E+00)
 search vector abs. value=  0.977E+00
 bond charge predicted
       N       E                     dE             d eps       ncg     rms          rms(c)
DAV:   1    -0.359965408956E+04   -0.28668E-01   -0.13888E+00  5504   0.825E-01    0.557E-01
DAV:   2    -0.359965956332E+04   -0.54738E-02   -0.67025E-02  5888   0.175E-01    0.315E-01
DAV:   3    -0.359965954118E+04    0.22143E-04   -0.21603E-03  5632   0.439E-02    0.178E-01
DAV:   4    -0.359965945707E+04    0.84107E-04   -0.17569E-04  6784   0.944E-03    0.120E-01
DAV:   5    -0.359965936808E+04    0.88983E-04   -0.25643E-04  6400   0.135E-02    0.523E-02
DAV:   6    -0.359965937456E+04   -0.64740E-05   -0.11525E-04  5632   0.892E-03    0.131E-02
DAV:   7    -0.359965937614E+04   -0.15848E-05   -0.12746E-05  6016   0.269E-03    0.881E-03
DAV:   8    -0.359965937712E+04   -0.98009E-06   -0.51999E-06  6272   0.124E-03
 augmentation electrons   1811.87399875013     
 soft         electrons  0.000000000000000E+000
 total        electrons   1811.87399875013     
 augmentation electrons -5.930241808755509E-002
 soft         electrons  0.000000000000000E+000
 total        electrons -5.930241808755509E-002
 augmentation electrons   1906.49893599329     
 soft         electrons  0.000000000000000E+000
 total        electrons   1906.49893599329     
 augmentation electrons   1848.98177612129     
 soft         electrons  0.000000000000000E+000
 total        electrons   1848.98177612129     
 augmentation electrons   54.7872487131930     
 soft         electrons   1757.08667298303     
 total        electrons   1811.87392169622     
 augmentation electrons   27.1449295530046     
 soft         electrons   1757.08667298303     
 total        electrons   43.9406689378265     
 translations:           0           1           0
   4 F= -.36375661E+04 E0= -.36375661E+04  d E =-.353968E-01  mag=    44.0000
 trial-energy change:   -0.035397  1 .order   -0.034977   -0.041666   -0.028289
 step:   0.3437(harm=  0.4373)  dis= 0.02294  next Energy= -3637.587895 (dE=-0.572E-01)
 bond charge predicted
       N       E                     dE             d eps       ncg     rms          rms(c)
DAV:   1    -0.359967439902E+04   -0.15023E-01   -0.29102E+00  5248   0.120E+00    0.799E-01
DAV:   2    -0.359968584125E+04   -0.11442E-01   -0.14011E-01  5760   0.253E-01    0.448E-01
DAV:   3    -0.359968577558E+04    0.65677E-04   -0.44583E-03  5632   0.628E-02    0.253E-01
DAV:   4    -0.359968559977E+04    0.17581E-03   -0.36479E-04  6784   0.137E-02    0.171E-01
DAV:   5    -0.359968541345E+04    0.18632E-03   -0.51144E-04  6400   0.193E-02    0.749E-02
DAV:   6    -0.359968542503E+04   -0.11582E-04   -0.22885E-04  5760   0.128E-02    0.183E-02
DAV:   7    -0.359968542721E+04   -0.21776E-05   -0.24843E-05  6144   0.388E-03    0.121E-02
DAV:   8    -0.359968542825E+04   -0.10429E-05   -0.78903E-06  6656   0.163E-03    0.781E-03
DAV:   9    -0.359968543031E+04   -0.20613E-05   -0.21455E-05  5632   0.223E-03    0.514E-03
DAV:  10    -0.359968543250E+04   -0.21828E-05   -0.11045E-05  6016   0.148E-03    0.464E-03
DAV:  11    -0.359968543443E+04   -0.19366E-05   -0.93117E-06  5632   0.118E-03    0.419E-03
DAV:  12    -0.359968543642E+04   -0.19855E-05   -0.66672E-05  6144   0.333E-03    0.434E-03
DAV:  13    -0.359968543999E+04   -0.35750E-05   -0.36931E-05  6144   0.197E-03    0.393E-03
DAV:  14    -0.359968544360E+04   -0.36111E-05   -0.18820E-05  5376   0.146E-03    0.350E-03
DAV:  15    -0.359968544452E+04   -0.91623E-06   -0.89696E-05  6144   0.316E-03    0.404E-03
DAV:  16    -0.359968544391E+04    0.61138E-06   -0.14380E-04  6016   0.375E-03    0.460E-03
DAV:  17    -0.359968543813E+04    0.57820E-05   -0.30829E-04  6400   0.547E-03    0.588E-03
DAV:  18    -0.359968543553E+04    0.25934E-05   -0.35369E-04  5888   0.522E-03    0.637E-03
DAV:  19    -0.359968544506E+04   -0.95250E-05   -0.24009E-04  5632   0.423E-03    0.552E-03
DAV:  20    -0.359968546235E+04   -0.17292E-04   -0.52198E-05  6144   0.349E-03    0.312E-03
DAV:  21    -0.359968546744E+04   -0.50876E-05   -0.12628E-05  5632   0.179E-03    0.186E-03
DAV:  22    -0.359968546874E+04   -0.13011E-05   -0.96344E-06  5376   0.102E-03    0.149E-03
DAV:  23    -0.359968546886E+04   -0.12244E-06   -0.21013E-05  5376   0.124E-03    0.167E-03
DAV:  24    -0.359968546978E+04   -0.91371E-06   -0.65888E-06  5248   0.862E-04
 augmentation electrons   1811.87736603657     
 soft         electrons  0.000000000000000E+000
 total        electrons   1811.87736603657     
 augmentation electrons -5.917965449614742E-002
 soft         electrons  0.000000000000000E+000
 total        electrons -5.917965449614742E-002
 augmentation electrons   1903.98487574641     
 soft         electrons  0.000000000000000E+000
 total        electrons   1903.98487574641     
 augmentation electrons   1846.46771587441     
 soft         electrons  0.000000000000000E+000
 total        electrons   1846.46771587441     
 augmentation electrons   54.7938072822377     
 soft         electrons   1757.08348324445     
 total        electrons   1811.87729052669     
 augmentation electrons   27.1490866590725     
 soft         electrons   1757.08348324445     
 total        electrons   43.9407917372857     
 translations:           0           1           0
   5 F= -.36375940E+04 E0= -.36375940E+04  d E =-.632921E-01  mag=    44.0000
 curvature:  -0.65 expect dE=-0.404E-01 dE for cont linesearch -0.295E-02
 ZBRENT: extrapolating
 opt :   0.4444  next Energy= -3637.597393 (dE=-0.667E-01)
 bond charge predicted
       N       E                     dE             d eps       ncg     rms          rms(c)
DAV:   1    -0.359968573032E+04   -0.26146E-03   -0.71351E-01  5376   0.592E-01    0.395E-01
DAV:   2    -0.359968847607E+04   -0.27458E-02   -0.33834E-02  5888   0.127E-01    0.222E-01
DAV:   3    -0.359968847168E+04    0.43890E-05   -0.10990E-03  5632   0.316E-02    0.125E-01
DAV:   4    -0.359968842812E+04    0.43561E-04   -0.88125E-05  6784   0.680E-03    0.848E-02
DAV:   5    -0.359968837944E+04    0.48679E-04   -0.11517E-04  6272   0.947E-03    0.377E-02
DAV:   6    -0.359968838061E+04   -0.11721E-05   -0.54680E-05  5760   0.648E-03    0.890E-03
DAV:   7    -0.359968838078E+04   -0.17174E-06   -0.58814E-06  5632   0.194E-03
 augmentation electrons   1811.87880375409     
 soft         electrons  0.000000000000000E+000
 total        electrons   1811.87880375409     
 augmentation electrons -5.916576811306357E-002
 soft         electrons  0.000000000000000E+000
 total        electrons -5.916576811306357E-002
 augmentation electrons   1902.39947284341     
 soft         electrons  0.000000000000000E+000
 total        electrons   1902.39947284341     
 augmentation electrons   1844.88231297141     
 soft         electrons  0.000000000000000E+000
 total        electrons   1844.88231297141     
 augmentation electrons   54.7966863453143     
 soft         electrons   1757.08204235461     
 total        electrons   1811.87872869992     
 augmentation electrons   27.1509167912440     
 soft         electrons   1757.08204235461     
 total        electrons   43.9408056343370     
 translations:           0           1           0
   6 F= -.36375977E+04 E0= -.36375977E+04  d E =-.669700E-01  mag=    44.0000
 curvature:  -0.74 expect dE=-0.662E-01 dE for cont linesearch -0.180E-06
 trial: gam= 0.37883 g(F)=  0.898E-01 g(S)=  0.000E+00 ort =-0.489E-03 (trialstep = 0.201E+00)
 search vector abs. value=  0.230E+00
 bond charge predicted
       N       E                     dE             d eps       ncg     rms          rms(c)
DAV:   1    -0.359970011144E+04   -0.11731E-01   -0.72858E-01  5504   0.724E-01    0.355E-01
DAV:   2    -0.359970302373E+04   -0.29123E-02   -0.35109E-02  5632   0.138E-01    0.200E-01
DAV:   3    -0.359970304510E+04   -0.21368E-04   -0.11326E-03  5760   0.341E-02    0.118E-01
DAV:   4    -0.359970300055E+04    0.44553E-04   -0.10530E-04  6912   0.867E-03    0.816E-02
DAV:   5    -0.359970295379E+04    0.46757E-04   -0.10105E-04  6400   0.937E-03    0.347E-02
DAV:   6    -0.359970295518E+04   -0.13873E-05   -0.50587E-05  5632   0.625E-03    0.776E-03
DAV:   7    -0.359970295538E+04   -0.20734E-06   -0.55892E-06  5632   0.205E-03
 augmentation electrons   1811.87407722593     
 soft         electrons  0.000000000000000E+000
 total        electrons   1811.87407722593     
 augmentation electrons -5.923620050224367E-002
 soft         electrons  0.000000000000000E+000
 total        electrons -5.923620050224367E-002
 augmentation electrons   1901.64351050685     
 soft         electrons  0.000000000000000E+000
 total        electrons   1901.64351050685     
 augmentation electrons   1844.12635063485     
 soft         electrons  0.000000000000000E+000
 total        electrons   1844.12635063485     
 augmentation electrons   54.7905138300043     
 soft         electrons   1757.08348883575     
 total        electrons   1811.87400266576     
 augmentation electrons   27.1520089997521     
 soft         electrons   1757.08348883575     
 total        electrons   43.9407352128131     
 translations:           0           1           0
   7 F= -.36376130E+04 E0= -.36376130E+04  d E =-.153232E-01  mag=    44.0000
 trial-energy change:   -0.015323  1 .order   -0.013078   -0.018022   -0.008134
 step:   0.2610(harm=  0.3667)  dis= 0.00788  next Energy= -3637.614303 (dE=-0.166E-01)
 bond charge predicted
       N       E                     dE             d eps       ncg     rms          rms(c)
DAV:   1    -0.359970515667E+04   -0.22015E-02   -0.64649E-02  6016   0.216E-01    0.106E-01
DAV:   2    -0.359970541284E+04   -0.25618E-03   -0.31199E-03  5632   0.412E-02    0.592E-02
DAV:   3    -0.359970541548E+04   -0.26337E-05   -0.99752E-05  5760   0.102E-02    0.352E-02
DAV:   4    -0.359970541118E+04    0.42993E-05   -0.99416E-06  6912   0.263E-03    0.243E-02
DAV:   5    -0.359970540645E+04    0.47274E-05   -0.13107E-05  5888   0.296E-03    0.104E-02
DAV:   6    -0.359970540658E+04   -0.12956E-06   -0.75833E-06  5632   0.195E-03
 augmentation electrons   1811.87255362488     
 soft         electrons  0.000000000000000E+000
 total        electrons   1811.87255362488     
 augmentation electrons -5.927373678197775E-002
 soft         electrons  0.000000000000000E+000
 total        electrons -5.927373678197775E-002
 augmentation electrons   1901.40802003782     
 soft         electrons  0.000000000000000E+000
 total        electrons   1901.40802003782     
 augmentation electrons   1843.89086016582     
 soft         electrons  0.000000000000000E+000
 total        electrons   1843.89086016582     
 augmentation electrons   54.7885499766463     
 soft         electrons   1757.08392925156     
 total        electrons   1811.87247922821     
 augmentation electrons   27.1523009162433     
 soft         electrons   1757.08392925156     
 total        electrons   43.9406976823200     
 translations:           0           1           0
   8 F= -.36376157E+04 E0= -.36376157E+04  d E =-.179918E-01  mag=    44.0000
 curvature:  -0.28 expect dE=-0.782E-02 dE for cont linesearch -0.866E-03
 ZBRENT: increasing intervall
 opt :   0.3806  next Energy= -3637.617261 (dE=-0.195E-01)
 bond charge predicted
       N       E                     dE             d eps       ncg     rms          rms(c)
DAV:   1    -0.359970682697E+04   -0.14205E-02   -0.25790E-01  5760   0.431E-01    0.212E-01
DAV:   2    -0.359970784254E+04   -0.10156E-02   -0.12394E-02  5632   0.825E-02    0.120E-01
DAV:   3    -0.359970785702E+04   -0.14486E-04   -0.40155E-04  5760   0.205E-02    0.699E-02
DAV:   4    -0.359970784039E+04    0.16635E-04   -0.37957E-05  6912   0.520E-03    0.484E-02
DAV:   5    -0.359970782259E+04    0.17800E-04   -0.39326E-05  6400   0.579E-03    0.206E-02
DAV:   6    -0.359970782288E+04   -0.28961E-06   -0.21124E-05  5632   0.385E-03    0.494E-03
DAV:   7    -0.359970782320E+04   -0.31934E-06   -0.28220E-06  5504   0.132E-03
 augmentation electrons   1811.86938138996     
 soft         electrons  0.000000000000000E+000
 total        electrons   1811.86938138996     
 augmentation electrons -5.934542052289028E-002
 soft         electrons  0.000000000000000E+000
 total        electrons -5.934542052289028E-002
 augmentation electrons   1900.96700344637     
 soft         electrons  0.000000000000000E+000
 total        electrons   1900.96700344637     
 augmentation electrons   1843.44984357437     
 soft         electrons  0.000000000000000E+000
 total        electrons   1843.44984357437     
 augmentation electrons   54.7844820524614     
 soft         electrons   1757.08482529198     
 total        electrons   1811.86930734444     
 augmentation electrons   27.1528897947424     
 soft         electrons   1757.08482529198     
 total        electrons   43.9406260098299     
 translations:           0           1           0
   9 F= -.36376185E+04 E0= -.36376185E+04  d E =-.208228E-01  mag=    44.0000
 curvature:  -0.50 expect dE=-0.203E-01 dE for cont linesearch -0.556E-05
 trial: gam= 0.46408 g(F)=  0.406E-01 g(S)=  0.000E+00 ort =-0.160E-02 (trialstep = 0.237E+00)
 search vector abs. value=  0.886E-01
 bond charge predicted
       N       E                     dE             d eps       ncg     rms          rms(c)
DAV:   1    -0.359971517715E+04   -0.73543E-02   -0.37465E-01  5632   0.558E-01    0.247E-01
DAV:   2    -0.359971725708E+04   -0.20799E-02   -0.23241E-02  5376   0.981E-02    0.126E-01
DAV:   3    -0.359971739759E+04   -0.14051E-03   -0.68879E-04  5376   0.256E-02    0.726E-02
DAV:   4    -0.359971737997E+04    0.17620E-04   -0.56858E-05  6784   0.589E-03    0.541E-02
DAV:   5    -0.359971735965E+04    0.20320E-04   -0.53477E-05  6272   0.701E-03    0.229E-02
DAV:   6    -0.359971736198E+04   -0.23229E-05   -0.25584E-05  6016   0.404E-03    0.532E-03
DAV:   7    -0.359971736251E+04   -0.53449E-06   -0.40256E-06  5888   0.152E-03
 augmentation electrons   1811.86311833431     
 soft         electrons  0.000000000000000E+000
 total        electrons   1811.86311833431     
 augmentation electrons -5.944661480808060E-002
 soft         electrons  0.000000000000000E+000
 total        electrons -5.944661480808060E-002
 augmentation electrons   1901.34091534629     
 soft         electrons  0.000000000000000E+000
 total        electrons   1901.34091534629     
 augmentation electrons   1843.82375547429     
 soft         electrons  0.000000000000000E+000
 total        electrons   1843.82375547429     
 augmentation electrons   54.7759945762441     
 soft         electrons   1757.08704985331     
 total        electrons   1811.86304442956     
 augmentation electrons   27.1531238241597     
 soft         electrons   1757.08704985331     
 total        electrons   43.9405248227399     
 translations:           0           1           0
  10 F= -.36376280E+04 E0= -.36376280E+04  d E =-.943610E-02  mag=    44.0000
 trial-energy change:   -0.009436  1 .order   -0.008015   -0.009448   -0.006583
 step:   0.7817(harm=  0.7817)  dis= 0.01318  next Energy= -3637.634112 (dE=-0.156E-01)
 bond charge predicted
       N       E                     dE             d eps       ncg     rms          rms(c)
DAV:   1    -0.359971746039E+04   -0.98411E-04   -0.19768E+00  5504   0.128E+00    0.567E-01
DAV:   2    -0.359972827477E+04   -0.10814E-01   -0.12258E-01  5504   0.224E-01    0.290E-01
DAV:   3    -0.359972918554E+04   -0.91077E-03   -0.35139E-03  5248   0.553E-02    0.167E-01
DAV:   4    -0.359972909345E+04    0.92095E-04   -0.29726E-04  6656   0.135E-02    0.124E-01
DAV:   5    -0.359972899127E+04    0.10217E-03   -0.26051E-04  6144   0.160E-02    0.526E-02
DAV:   6    -0.359972900403E+04   -0.12754E-04   -0.12156E-04  5888   0.930E-03    0.116E-02
DAV:   7    -0.359972900530E+04   -0.12750E-05   -0.15932E-05  6144   0.344E-03    0.698E-03
DAV:   8    -0.359972900622E+04   -0.91578E-06   -0.84809E-06  6144   0.164E-03
 augmentation electrons   1811.85084753600     
 soft         electrons  0.000000000000000E+000
 total        electrons   1811.85084753600     
 augmentation electrons -5.954906680620628E-002
 soft         electrons  0.000000000000000E+000
 total        electrons -5.954906680620628E-002
 augmentation electrons   1901.78102749761     
 soft         electrons  0.000000000000000E+000
 total        electrons   1901.78102749761     
 augmentation electrons   1844.26386762561     
 soft         electrons  0.000000000000000E+000
 total        electrons   1844.26386762561     
 augmentation electrons   54.7585178378989     
 soft         electrons   1757.09225614186     
 total        electrons   1811.85077397976     
 augmentation electrons   27.1538074414440     
 soft         electrons   1757.09225614186     
 total        electrons   43.9404224070328     
 translations:           0           1           0
  11 F= -.36376393E+04 E0= -.36376393E+04  d E =-.207801E-01  mag=    44.0000
 curvature:  -0.87 expect dE=-0.572E-01 dE for cont linesearch -0.243E-04
 trial: gam= 1.52947 g(F)=  0.659E-01 g(S)=  0.000E+00 ort = 0.158E-02 (trialstep = 0.110E+00)
 search vector abs. value=  0.278E+00
 bond charge predicted
       N       E                     dE             d eps       ncg     rms          rms(c)
DAV:   1    -0.359973479958E+04   -0.57943E-02   -0.24428E-01  5632   0.437E-01    0.203E-01
DAV:   2    -0.359973641598E+04   -0.16164E-02   -0.17252E-02  5376   0.777E-02    0.968E-02
DAV:   3    -0.359973656610E+04   -0.15011E-03   -0.49174E-04  5376   0.209E-02    0.544E-02
DAV:   4    -0.359973656079E+04    0.53097E-05   -0.33414E-05  6656   0.387E-03    0.439E-02
DAV:   5    -0.359973655306E+04    0.77280E-05   -0.40178E-05  6272   0.513E-03    0.218E-02
DAV:   6    -0.359973655560E+04   -0.25459E-05   -0.27904E-05  6656   0.328E-03    0.676E-03
DAV:   7    -0.359973655717E+04   -0.15693E-05   -0.56194E-06  5376   0.141E-03    0.431E-03
DAV:   8    -0.359973655871E+04   -0.15347E-05   -0.11197E-05  5504   0.119E-03    0.351E-03
DAV:   9    -0.359973656026E+04   -0.15557E-05   -0.11968E-05  5504   0.106E-03    0.328E-03
DAV:  10    -0.359973656199E+04   -0.17276E-05   -0.12580E-05  5120   0.985E-04    0.316E-03
DAV:  11    -0.359973656339E+04   -0.13958E-05   -0.73837E-05  6144   0.279E-03    0.353E-03
DAV:  12    -0.359973656536E+04   -0.19688E-05   -0.91821E-05  5632   0.273E-03    0.372E-03
DAV:  13    -0.359973656851E+04   -0.31505E-05   -0.10669E-04  5888   0.270E-03    0.379E-03
DAV:  14    -0.359973655488E+04    0.13624E-04   -0.52735E-04  6400   0.722E-03    0.625E-03
DAV:  15    -0.359973656128E+04   -0.64006E-05   -0.36740E-04  5760   0.491E-03    0.591E-03
DAV:  16    -0.359973655861E+04    0.26758E-05   -0.51479E-04  6016   0.589E-03    0.656E-03
DAV:  17    -0.359973657493E+04   -0.16322E-04   -0.27018E-04  6016   0.455E-03    0.531E-03
DAV:  18    -0.359973658873E+04   -0.13803E-04   -0.10831E-04  6272   0.330E-03    0.373E-03
DAV:  19    -0.359973659853E+04   -0.97921E-05   -0.49050E-06  5632   0.239E-03    0.183E-03
DAV:  20    -0.359973659927E+04   -0.74820E-06   -0.23239E-06  5376   0.115E-03
 augmentation electrons   1811.84779163613     
 soft         electrons  0.000000000000000E+000
 total        electrons   1811.84779163613     
 augmentation electrons -5.961377184861573E-002
 soft         electrons  0.000000000000000E+000
 total        electrons -5.961377184861573E-002
 augmentation electrons   1902.02519682609     
 soft         electrons  0.000000000000000E+000
 total        electrons   1902.02519682609     
 augmentation electrons   1844.50803695409     
 soft         electrons  0.000000000000000E+000
 total        electrons   1844.50803695409     
 augmentation electrons   54.7541245318663     
 soft         electrons   1757.09359381613     
 total        electrons   1811.84771834800     
 augmentation electrons   27.1532965442935     
 soft         electrons   1757.09359381613     
 total        electrons   43.9403577849044     
 translations:           0           1           0
  12 F= -.36376466E+04 E0= -.36376466E+04  d E =-.727095E-02  mag=    44.0000
 ZBRENT: can't locate minimum, use default step
 trial-energy change:   -0.007271  1 .order   -0.007109   -0.007532   -0.006686
 step:   0.4411(harm=  0.9817)  dis= 0.01223  next Energy= -3637.672840 (dE=-0.335E-01)
 bond charge predicted
       N       E                     dE             d eps       ncg     rms          rms(c)
DAV:   1    -0.359973907696E+04   -0.24784E-02   -0.22009E+00  5376   0.131E+00    0.611E-01
DAV:   2    -0.359975327346E+04   -0.14196E-01   -0.15491E-01  5504   0.231E-01    0.290E-01
DAV:   3    -0.359975494051E+04   -0.16671E-02   -0.41379E-03  5248   0.567E-02    0.162E-01
DAV:   4    -0.359975488292E+04    0.57586E-04   -0.29691E-04  6528   0.118E-02    0.130E-01
DAV:   5    -0.359975479737E+04    0.85555E-04   -0.22298E-04  5888   0.147E-02    0.655E-02
DAV:   6    -0.359975480311E+04   -0.57384E-05   -0.13045E-04  6272   0.936E-03    0.175E-02
DAV:   7    -0.359975480509E+04   -0.19838E-05   -0.19602E-05  6016   0.382E-03    0.855E-03
DAV:   8    -0.359975480554E+04   -0.44727E-06   -0.87438E-06  6144   0.199E-03
 augmentation electrons   1811.84117145229     
 soft         electrons  0.000000000000000E+000
 total        electrons   1811.84117145229     
 augmentation electrons -5.961122037164433E-002
 soft         electrons  0.000000000000000E+000
 total        electrons -5.961122037164433E-002
 augmentation electrons   1902.55426716529     
 soft         electrons  0.000000000000000E+000
 total        electrons   1902.55426716529     
 augmentation electrons   1845.03710729329     
 soft         electrons  0.000000000000000E+000
 total        electrons   1845.03710729329     
 augmentation electrons   54.7435510136412     
 soft         electrons   1757.09754796944     
 total        electrons   1811.84109898308     
 augmentation electrons   27.1537719997092     
 soft         electrons   1757.09754796944     
 total        electrons   43.9403604014065     
 translations:           0           1           0
  13 F= -.36376638E+04 E0= -.36376638E+04  d E =-.244855E-01  mag=    44.0000
 curvature:  -1.23 expect dE=-0.466E-01 dE for cont linesearch -0.738E-02
 ZBRENT: increasing intervall
 opt :   1.1028  next Energy= -3637.677739 (dE=-0.384E-01)
 bond charge predicted
       N       E                     dE             d eps       ncg     rms          rms(c)
DAV:   1    -0.359970926077E+04    0.45544E-01   -0.88050E+00  5632   0.263E+00    0.122E+00
DAV:   2    -0.359976425457E+04   -0.54994E-01   -0.61393E-01  5632   0.458E-01    0.580E-01
DAV:   3    -0.359977232135E+04   -0.80668E-02   -0.15360E-02  5632   0.107E-01    0.324E-01
DAV:   4    -0.359977210831E+04    0.21304E-03   -0.11710E-03  6784   0.233E-02    0.261E-01
DAV:   5    -0.359977177447E+04    0.33384E-03   -0.88951E-04  5888   0.292E-02    0.129E-01
DAV:   6    -0.359977180281E+04   -0.28338E-04   -0.51506E-04  5888   0.184E-02    0.348E-02
DAV:   7    -0.359977181218E+04   -0.93766E-05   -0.76609E-05  6272   0.747E-03    0.174E-02
DAV:   8    -0.359977181537E+04   -0.31865E-05   -0.39442E-05  6784   0.404E-03    0.934E-03
DAV:   9    -0.359977181977E+04   -0.44052E-05   -0.34662E-05  6144   0.292E-03    0.713E-03
DAV:  10    -0.359977182449E+04   -0.47126E-05   -0.29185E-05  6144   0.232E-03    0.626E-03
DAV:  11    -0.359977182955E+04   -0.50675E-05   -0.62496E-05  5632   0.299E-03    0.582E-03
DAV:  12    -0.359977183539E+04   -0.58363E-05   -0.80932E-05  5888   0.308E-03    0.564E-03
DAV:  13    -0.359977184218E+04   -0.67928E-05   -0.55708E-05  5632   0.228E-03    0.540E-03
DAV:  14    -0.359977184763E+04   -0.54484E-05   -0.12724E-04  6144   0.330E-03    0.552E-03
DAV:  15    -0.359977184739E+04    0.24351E-06   -0.34851E-04  6400   0.581E-03    0.663E-03
DAV:  16    -0.359977185039E+04   -0.30045E-05   -0.48467E-04  6144   0.610E-03    0.730E-03
DAV:  17    -0.359977176748E+04    0.82917E-04   -0.26065E-03  6400   0.166E-02    0.135E-02
DAV:  18    -0.359977184290E+04   -0.75426E-04   -0.82267E-04  6272   0.893E-03    0.977E-03
DAV:  19    -0.359977188117E+04   -0.38268E-04   -0.50681E-04  6272   0.641E-03    0.768E-03
DAV:  20    -0.359977190344E+04   -0.22270E-04   -0.38086E-04  6144   0.531E-03    0.656E-03
DAV:  21    -0.359977190984E+04   -0.63981E-05   -0.40383E-04  5888   0.499E-03    0.636E-03
DAV:  22    -0.359977192469E+04   -0.14852E-04   -0.25054E-04  6016   0.430E-03    0.537E-03
DAV:  23    -0.359977193652E+04   -0.11825E-04   -0.11774E-04  6272   0.322E-03    0.406E-03
DAV:  24    -0.359977194523E+04   -0.87165E-05   -0.27439E-05  5760   0.220E-03    0.269E-03
DAV:  25    -0.359977194806E+04   -0.28300E-05   -0.12973E-05  5120   0.129E-03    0.222E-03
DAV:  26    -0.359977194885E+04   -0.78266E-06   -0.27089E-05  5376   0.133E-03    0.234E-03
DAV:  27    -0.359977194704E+04    0.18074E-05   -0.99220E-05  6144   0.302E-03    0.321E-03
DAV:  28    -0.359977195109E+04   -0.40562E-05   -0.29782E-05  5888   0.174E-03    0.249E-03
DAV:  29    -0.359977195130E+04   -0.20930E-06   -0.58654E-05  5376   0.208E-03    0.279E-03
DAV:  30    -0.359977194346E+04    0.78461E-05   -0.22140E-04  6400   0.440E-03    0.451E-03
DAV:  31    -0.359977193008E+04    0.13374E-04   -0.43633E-04  6400   0.560E-03    0.631E-03
DAV:  32    -0.359977194162E+04   -0.11532E-04   -0.23776E-04  6016   0.406E-03    0.519E-03
DAV:  33    -0.359977195849E+04   -0.16879E-04   -0.35654E-05  6016   0.297E-03    0.269E-03
DAV:  34    -0.359977196327E+04   -0.47714E-05   -0.16841E-06  4992   0.159E-03    0.135E-03
DAV:  35    -0.359977196369E+04   -0.42180E-06   -0.98506E-07  4480   0.738E-04
 augmentation electrons   1811.82180641118     
 soft         electrons  0.000000000000000E+000
 total        electrons   1811.82180641118     
 augmentation electrons -5.918455572879319E-002
 soft         electrons  0.000000000000000E+000
 total        electrons -5.918455572879319E-002
 augmentation electrons   1908.94452261180     
 soft         electrons  0.000000000000000E+000
 total        electrons   1908.94452261180     
 augmentation electrons   1851.42736273980     
 soft         electrons  0.000000000000000E+000
 total        electrons   1851.42736273980     
 augmentation electrons   54.7161862291684     
 soft         electrons   1757.10555053509     
 total        electrons   1811.82173676426     
 augmentation electrons   27.1532180330912     
 soft         electrons   1757.10555053509     
 total        electrons   43.9407874754108     
 translations:           0           1           0
  14 F= -.36376789E+04 E0= -.36376789E+04  d E =-.395415E-01  mag=    44.0000
 curvature:  -2.32 expect dE=-0.265E+00 dE for cont linesearch -0.706E-05
 trial: gam= 1.85639 g(F)=  0.114E+00 g(S)=  0.000E+00 ort = 0.919E-03 (trialstep = 0.798E-01)
 search vector abs. value=  0.108E+01
 bond charge predicted
       N       E                     dE             d eps       ncg     rms          rms(c)
DAV:   1    -0.359977795501E+04   -0.59917E-02   -0.49931E-01  5632   0.618E-01    0.285E-01
DAV:   2    -0.359978113101E+04   -0.31760E-02   -0.34056E-02  5376   0.110E-01    0.134E-01
DAV:   3    -0.359978141803E+04   -0.28702E-03   -0.93820E-04  5376   0.285E-02    0.761E-02
DAV:   4    -0.359978140511E+04    0.12918E-04   -0.64365E-05  6528   0.565E-03    0.616E-02
DAV:   5    -0.359978138472E+04    0.20388E-04   -0.57218E-05  5760   0.766E-03    0.292E-02
DAV:   6    -0.359978138586E+04   -0.11339E-05   -0.28529E-05  6656   0.427E-03    0.824E-03
DAV:   7    -0.359978138628E+04   -0.42448E-06   -0.40811E-06  5888   0.176E-03
 augmentation electrons   1811.81102597288     
 soft         electrons  0.000000000000000E+000
 total        electrons   1811.81102597288     
 augmentation electrons -5.902262338206370E-002
 soft         electrons  0.000000000000000E+000
 total        electrons -5.902262338206370E-002
 augmentation electrons   1912.05926171330     
 soft         electrons  0.000000000000000E+000
 total        electrons   1912.05926171330     
 augmentation electrons   1854.54210184130     
 soft         electrons  0.000000000000000E+000
 total        electrons   1854.54210184130     
 augmentation electrons   54.7045822147542     
 soft         electrons   1757.10637539656     
 total        electrons   1811.81095761132     
 augmentation electrons   27.1534798096468     
 soft         electrons   1757.10637539656     
 total        electrons   43.9409494847569     
 translations:           0           1           0
  15 F= -.36376874E+04 E0= -.36376874E+04  d E =-.849445E-02  mag=    44.0000
 ZBRENT: can't locate minimum, use default step
 trial-energy change:   -0.008494  1 .order   -0.008598   -0.009236   -0.007960
 step:   0.3192(harm=  0.5778)  dis= 0.01634  next Energy= -3637.712284 (dE=-0.334E-01)
 bond charge predicted
       N       E                     dE             d eps       ncg     rms          rms(c)
DAV:   1    -0.359977023060E+04    0.11155E-01   -0.44938E+00  5888   0.185E+00    0.854E-01
DAV:   2    -0.359979792234E+04   -0.27692E-01   -0.30613E-01  5120   0.326E-01    0.403E-01
DAV:   3    -0.359980145858E+04   -0.35362E-02   -0.77072E-03  5120   0.766E-02    0.229E-01
DAV:   4    -0.359980133785E+04    0.12073E-03   -0.57438E-04  6272   0.167E-02    0.186E-01
DAV:   5    -0.359980115677E+04    0.18108E-03   -0.51624E-04  5888   0.229E-02    0.881E-02
DAV:   6    -0.359980116791E+04   -0.11141E-04   -0.25066E-04  6528   0.126E-02    0.249E-02
DAV:   7    -0.359980117150E+04   -0.35962E-05   -0.33653E-05  6016   0.510E-03    0.132E-02
DAV:   8    -0.359980117291E+04   -0.14054E-05   -0.18994E-05  6400   0.295E-03    0.632E-03
DAV:   9    -0.359980117485E+04   -0.19422E-05   -0.17350E-05  6144   0.216E-03    0.479E-03
DAV:  10    -0.359980117678E+04   -0.19294E-05   -0.97467E-06  5248   0.143E-03    0.414E-03
DAV:  11    -0.359980117885E+04   -0.20702E-05   -0.27990E-05  5376   0.203E-03    0.366E-03
DAV:  12    -0.359980118106E+04   -0.22133E-05   -0.36208E-05  5760   0.210E-03    0.361E-03
DAV:  13    -0.359980118375E+04   -0.26840E-05   -0.84885E-06  5248   0.124E-03    0.331E-03
DAV:  14    -0.359980118556E+04   -0.18096E-05   -0.16408E-05  5376   0.112E-03    0.319E-03
DAV:  15    -0.359980118510E+04    0.45485E-06   -0.13858E-04  6400   0.399E-03    0.412E-03
DAV:  16    -0.359980119106E+04   -0.59611E-05   -0.40056E-05  6016   0.201E-03    0.345E-03
DAV:  17    -0.359980119417E+04   -0.31034E-05   -0.44181E-05  5632   0.167E-03    0.326E-03
DAV:  18    -0.359980116585E+04    0.28315E-04   -0.91423E-04  6400   0.105E-02    0.777E-03
DAV:  19    -0.359980118185E+04   -0.15996E-04   -0.40518E-04  6272   0.546E-03    0.645E-03
DAV:  20    -0.359980119994E+04   -0.18094E-04   -0.18517E-04  6272   0.412E-03    0.472E-03
DAV:  21    -0.359980120514E+04   -0.51985E-05   -0.17962E-04  5504   0.339E-03    0.433E-03
DAV:  22    -0.359980120526E+04   -0.11640E-06   -0.23210E-04  6144   0.381E-03    0.459E-03
DAV:  23    -0.359980121673E+04   -0.11475E-04   -0.52536E-05  6016   0.279E-03    0.285E-03
DAV:  24    -0.359980122107E+04   -0.43354E-05   -0.11801E-05  5504   0.153E-03    0.181E-03
DAV:  25    -0.359980122234E+04   -0.12742E-05   -0.76014E-06  5120   0.881E-04    0.150E-03
DAV:  26    -0.359980122237E+04   -0.32000E-07   -0.25602E-05  5248   0.138E-03    0.184E-03
DAV:  27    -0.359980122328E+04   -0.90647E-06   -0.13681E-05  5248   0.970E-04    0.165E-03
DAV:  28    -0.359980122408E+04   -0.79630E-06   -0.51964E-06  5248   0.730E-04
 augmentation electrons   1811.77054384907     
 soft         electrons  0.000000000000000E+000
 total        electrons   1811.77054384907     
 augmentation electrons -5.871838966861068E-002
 soft         electrons  0.000000000000000E+000
 total        electrons -5.871838966861068E-002
 augmentation electrons   1926.46836188057     
 soft         electrons  0.000000000000000E+000
 total        electrons   1926.46836188057     
 augmentation electrons   1868.95120200857     
 soft         electrons  0.000000000000000E+000
 total        electrons   1868.95120200857     
 augmentation electrons   54.6615529610837     
 soft         electrons   1757.10892678471     
 total        electrons   1811.77047974579     
 augmentation electrons   27.1534183075898     
 soft         electrons   1757.10892678471     
 total        electrons   43.9412541202936     
 translations:           0           1           0
  16 F= -.36377044E+04 E0= -.36377044E+04  d E =-.255165E-01  mag=    44.0000
 curvature:  -1.96 expect dE=-0.108E+00 dE for cont linesearch -0.400E-02
 ZBRENT: increasing intervall
 opt :   0.7981  next Energy= -3637.701456 (dE=-0.226E-01)
 bond charge predicted
       N       E                     dE             d eps       ncg     rms          rms(c)
DAV:   1    -0.359968029259E+04    0.12093E+00   -0.17963E+01  5760   0.371E+00    0.171E+00
DAV:   2    -0.359978880231E+04   -0.10851E+00   -0.12232E+00  5632   0.652E-01    0.812E-01
DAV:   3    -0.359980518305E+04   -0.16381E-01   -0.29513E-02  5504   0.149E-01    0.460E-01
DAV:   4    -0.359980469808E+04    0.48497E-03   -0.22866E-03  6912   0.333E-02    0.373E-01
DAV:   5    -0.359980395741E+04    0.74067E-03   -0.19956E-03  5888   0.454E-02    0.176E-01
DAV:   6    -0.359980399291E+04   -0.35492E-04   -0.95876E-04  6528   0.252E-02    0.495E-02
DAV:   7    -0.359980400522E+04   -0.12311E-04   -0.12806E-04  5632   0.102E-02    0.259E-02
DAV:   8    -0.359980400707E+04   -0.18509E-05   -0.51797E-05  7040   0.573E-03    0.116E-02
DAV:   9    -0.359980401135E+04   -0.42801E-05   -0.42631E-05  6656   0.402E-03    0.838E-03
DAV:  10    -0.359980401577E+04   -0.44213E-05   -0.24430E-05  6656   0.266E-03    0.691E-03
DAV:  11    -0.359980402030E+04   -0.45286E-05   -0.54163E-05  5632   0.320E-03    0.579E-03
DAV:  12    -0.359980402524E+04   -0.49430E-05   -0.81375E-05  6144   0.354E-03    0.555E-03
DAV:  13    -0.359980403138E+04   -0.61428E-05   -0.21478E-05  5888   0.200E-03    0.515E-03
DAV:  14    -0.359980403522E+04   -0.38353E-05   -0.23039E-05  5760   0.136E-03    0.485E-03
DAV:  15    -0.359980403666E+04   -0.14433E-05   -0.22873E-04  6400   0.523E-03    0.583E-03
DAV:  16    -0.359980404757E+04   -0.10906E-04   -0.51292E-05  6144   0.254E-03    0.498E-03
DAV:  17    -0.359980405311E+04   -0.55460E-05   -0.24515E-05  5504   0.159E-03    0.455E-03
DAV:  18    -0.359980402486E+04    0.28249E-04   -0.13036E-03  6144   0.130E-02    0.938E-03
DAV:  19    -0.359980403318E+04   -0.83141E-05   -0.88437E-04  6144   0.785E-03    0.919E-03
DAV:  20    -0.359980405873E+04   -0.25556E-04   -0.54901E-04  6400   0.634E-03    0.767E-03
DAV:  21    -0.359980407726E+04   -0.18531E-04   -0.36433E-04  6272   0.522E-03    0.643E-03
DAV:  22    -0.359980404393E+04    0.33339E-04   -0.13292E-03  6400   0.109E-02    0.980E-03
DAV:  23    -0.359980410355E+04   -0.59621E-04   -0.11917E-04  6144   0.644E-03    0.464E-03
DAV:  24    -0.359980411492E+04   -0.11375E-04   -0.46779E-05  5760   0.258E-03    0.308E-03
DAV:  25    -0.359980412044E+04   -0.55234E-05   -0.14360E-05  5504   0.176E-03    0.233E-03
DAV:  26    -0.359980411988E+04    0.56627E-06   -0.68982E-05  5632   0.240E-03    0.279E-03
DAV:  27    -0.359980412185E+04   -0.19732E-05   -0.43247E-05  6016   0.171E-03    0.259E-03
DAV:  28    -0.359980412464E+04   -0.27852E-05   -0.64518E-06  5504   0.128E-03    0.193E-03
DAV:  29    -0.359980412539E+04   -0.75095E-06   -0.27798E-06  4480   0.605E-04
 augmentation electrons   1811.72319836064     
 soft         electrons  0.000000000000000E+000
 total        electrons   1811.72319836064     
 augmentation electrons -5.693321941959040E-002
 soft         electrons  0.000000000000000E+000
 total        electrons -5.693321941959040E-002
 augmentation electrons   1963.66687612996     
 soft         electrons  0.000000000000000E+000
 total        electrons   1963.66687612996     
 augmentation electrons   1906.14971625796     
 soft         electrons  0.000000000000000E+000
 total        electrons   1906.14971625796     
 augmentation electrons   54.6091765235017     
 soft         electrons   1757.11396389260     
 total        electrons   1811.72314041610     
 augmentation electrons   27.1551930795426     
 soft         electrons   1757.11396389260     
 total        electrons   43.9430404143420     
 translations:           0           1           0
  17 F= -.36377015E+04 E0= -.36377015E+04  d E =-.226893E-01  mag=    44.0000
 curvature:   1.43 expect dE= 0.380E+00 dE for cont linesearch  0.408E-02
 ZBRENT: bracketing found
 ZBRENT: interpolating
 opt :   0.5386  next Energy= -3637.709507 (dE=-0.307E-01)
 bond charge predicted
       N       E                     dE             d eps       ncg     rms          rms(c)
DAV:   1    -0.359977220875E+04    0.31916E-01   -0.52777E+00  5760   0.202E+00    0.925E-01
DAV:   2    -0.359980457192E+04   -0.32363E-01   -0.35896E-01  5248   0.355E-01    0.435E-01
DAV:   3    -0.359980882698E+04   -0.42551E-02   -0.89347E-03  5120   0.828E-02    0.248E-01
DAV:   4    -0.359980869543E+04    0.13156E-03   -0.67569E-04  6528   0.183E-02    0.201E-01
DAV:   5    -0.359980847010E+04    0.22533E-03   -0.57678E-04  5760   0.247E-02    0.959E-02
DAV:   6    -0.359980847994E+04   -0.98416E-05   -0.28814E-04  6528   0.139E-02    0.268E-02
DAV:   7    -0.359980848311E+04   -0.31757E-05   -0.39815E-05  5888   0.569E-03    0.140E-02
DAV:   8    -0.359980848337E+04   -0.25413E-06   -0.13875E-05  6656   0.309E-03    0.632E-03
DAV:   9    -0.359980848434E+04   -0.97696E-06   -0.11480E-05  6272   0.222E-03    0.443E-03
DAV:  10    -0.359980848542E+04   -0.10704E-05   -0.58885E-06  5632   0.141E-03    0.365E-03
DAV:  11    -0.359980848640E+04   -0.98848E-06   -0.12197E-05  5504   0.164E-03    0.294E-03
DAV:  12    -0.359980848742E+04   -0.10195E-05   -0.20244E-05  5504   0.191E-03    0.279E-03
DAV:  13    -0.359980848895E+04   -0.15266E-05   -0.45052E-06  5120   0.106E-03    0.257E-03
DAV:  14    -0.359980848976E+04   -0.81383E-06   -0.41820E-06  5248   0.652E-04
 augmentation electrons   1811.73923031571     
 soft         electrons  0.000000000000000E+000
 total        electrons   1811.73923031571     
 augmentation electrons -5.815004544963968E-002
 soft         electrons  0.000000000000000E+000
 total        electrons -5.815004544963968E-002
 augmentation electrons   1945.92005235255     
 soft         electrons  0.000000000000000E+000
 total        electrons   1945.92005235255     
 augmentation electrons   1888.40289248055     
 soft         electrons  0.000000000000000E+000
 total        electrons   1888.40289248055     
 augmentation electrons   54.6279121453993     
 soft         electrons   1757.11125757123     
 total        electrons   1811.73916971663     
 augmentation electrons   27.1533313360118     
 soft         electrons   1757.11125757123     
 total        electrons   43.9418229875927     
 translations:           0           1           0
  18 F= -.36377090E+04 E0= -.36377090E+04  d E =-.301772E-01  mag=    44.0000
 curvature:  -1.80 expect dE=-0.193E+00 dE for cont linesearch -0.322E-06
 trial: gam= 0.98235 g(F)=  0.107E+00 g(S)=  0.000E+00 ort =-0.439E-03 (trialstep = 0.161E+00)
 search vector abs. value=  0.114E+01
 bond charge predicted
       N       E                     dE             d eps       ncg     rms          rms(c)
DAV:   1    -0.359981230765E+04   -0.38187E-02   -0.21614E+00  5632   0.130E+00    0.581E-01
DAV:   2    -0.359982522367E+04   -0.12916E-01   -0.13973E-01  5120   0.225E-01    0.273E-01
DAV:   3    -0.359982648900E+04   -0.12653E-02   -0.34677E-03  5120   0.533E-02    0.157E-01
DAV:   4    -0.359982643075E+04    0.58244E-04   -0.25225E-04  6272   0.113E-02    0.127E-01
DAV:   5    -0.359982634116E+04    0.89590E-04   -0.23718E-04  5760   0.155E-02    0.620E-02
DAV:   6    -0.359982634737E+04   -0.62092E-05   -0.11415E-04  6656   0.876E-03    0.166E-02
DAV:   7    -0.359982634816E+04   -0.79113E-06   -0.14737E-05  5888   0.354E-03    0.798E-03
DAV:   8    -0.359982634799E+04    0.17081E-06   -0.35712E-06  5760   0.177E-03
 augmentation electrons   1811.72917359767     
 soft         electrons  0.000000000000000E+000
 total        electrons   1811.72917359767     
 augmentation electrons -5.736574500260667E-002
 soft         electrons  0.000000000000000E+000
 total        electrons -5.736574500260667E-002
 augmentation electrons   1958.77040528797     
 soft         electrons  0.000000000000000E+000
 total        electrons   1958.77040528797     
 augmentation electrons   1901.25324541597     
 soft         electrons  0.000000000000000E+000
 total        electrons   1901.25324541597     
 augmentation electrons   54.6188991356145     
 soft         electrons   1757.11021520887     
 total        electrons   1811.72911434448     
 augmentation electrons   27.1543322542885     
 soft         electrons   1757.11021520887     
 total        electrons   43.9426076344016     
 translations:           0           1           0
  19 F= -.36377244E+04 E0= -.36377244E+04  d E =-.153594E-01  mag=    44.0000
 trial-energy change:   -0.015359  1 .order   -0.015052   -0.017205   -0.012900
 step:   0.3967(harm=  0.6445)  dis= 0.01927  next Energy= -3637.734763 (dE=-0.257E-01)
 bond charge predicted
       N       E                     dE             d eps       ncg     rms          rms(c)
DAV:   1    -0.359981418346E+04    0.12165E-01   -0.46041E+00  5632   0.189E+00    0.848E-01
DAV:   2    -0.359984142742E+04   -0.27244E-01   -0.29760E-01  5504   0.328E-01    0.400E-01
DAV:   3    -0.359984442012E+04   -0.29927E-02   -0.70913E-03  5120   0.752E-02    0.230E-01
DAV:   4    -0.359984429972E+04    0.12040E-03   -0.53500E-04  6272   0.164E-02    0.186E-01
DAV:   5    -0.359984411451E+04    0.18521E-03   -0.51786E-04  6016   0.226E-02    0.910E-02
DAV:   6    -0.359984412963E+04   -0.15119E-04   -0.25251E-04  6400   0.128E-02    0.246E-02
DAV:   7    -0.359984413274E+04   -0.31072E-05   -0.33533E-05  5760   0.517E-03    0.122E-02
DAV:   8    -0.359984413375E+04   -0.10100E-05   -0.16240E-05  7040   0.280E-03    0.576E-03
DAV:   9    -0.359984413519E+04   -0.14429E-05   -0.12305E-05  6016   0.193E-03    0.428E-03
DAV:  10    -0.359984413662E+04   -0.14276E-05   -0.86931E-06  5888   0.139E-03    0.357E-03
DAV:  11    -0.359984413806E+04   -0.14424E-05   -0.21805E-05  5376   0.187E-03    0.310E-03
DAV:  12    -0.359984413975E+04   -0.16882E-05   -0.21141E-05  5760   0.163E-03    0.296E-03
DAV:  13    -0.359984414153E+04   -0.17796E-05   -0.92579E-06  5248   0.106E-03    0.275E-03
DAV:  14    -0.359984414295E+04   -0.14189E-05   -0.23945E-05  5248   0.140E-03    0.274E-03
DAV:  15    -0.359984414367E+04   -0.71856E-06   -0.59803E-05  5632   0.233E-03    0.308E-03
DAV:  16    -0.359984414619E+04   -0.25282E-05   -0.48481E-05  5760   0.174E-03    0.296E-03
DAV:  17    -0.359984414062E+04    0.55741E-05   -0.28538E-04  6400   0.525E-03    0.465E-03
DAV:  18    -0.359984413503E+04    0.55899E-05   -0.40277E-04  6272   0.551E-03    0.568E-03
DAV:  19    -0.359984413900E+04   -0.39682E-05   -0.35287E-04  5888   0.460E-03    0.556E-03
DAV:  20    -0.359984415023E+04   -0.11233E-04   -0.19468E-04  6144   0.380E-03    0.445E-03
DAV:  21    -0.359984415653E+04   -0.62950E-05   -0.13994E-04  5888   0.304E-03    0.373E-03
DAV:  22    -0.359984416183E+04   -0.53018E-05   -0.88918E-05  5888   0.251E-03    0.304E-03
DAV:  23    -0.359984416494E+04   -0.31099E-05   -0.63007E-05  5376   0.204E-03    0.257E-03
DAV:  24    -0.359984416776E+04   -0.28182E-05   -0.30499E-05  5376   0.159E-03    0.195E-03
DAV:  25    -0.359984416998E+04   -0.22285E-05   -0.46416E-06  5376   0.113E-03    0.119E-03
DAV:  26    -0.359984417052E+04   -0.53823E-06   -0.23582E-06  4096   0.572E-04
 augmentation electrons   1811.72760283442     
 soft         electrons  0.000000000000000E+000
 total        electrons   1811.72760283442     
 augmentation electrons -5.657652625584020E-002
 soft         electrons  0.000000000000000E+000
 total        electrons -5.657652625584020E-002
 augmentation electrons   1966.24191370044     
 soft         electrons  0.000000000000000E+000
 total        electrons   1966.24191370044     
 augmentation electrons   1908.72475382845     
 soft         electrons  0.000000000000000E+000
 total        electrons   1908.72475382845     
 augmentation electrons   54.6188444584549     
 soft         electrons   1757.10870046546     
 total        electrons   1811.72754492392     
 augmentation electrons   27.1550628987545     
 soft         electrons   1757.10870046546     
 total        electrons   43.9433975005738     
 translations:           0           1           0
  20 F= -.36377386E+04 E0= -.36377386E+04  d E =-.295217E-01  mag=    44.0000
 curvature:  -2.55 expect dE=-0.124E+00 dE for cont linesearch -0.339E-02
 ZBRENT: increasing intervall
 opt :   0.8675  next Energy= -3637.737666 (dE=-0.286E-01)
 bond charge predicted
       N       E                     dE             d eps       ncg     rms          rms(c)
DAV:   1    -0.359973195513E+04    0.11221E+00   -0.18423E+01  5888   0.380E+00    0.169E+00
DAV:   2    -0.359983731381E+04   -0.10536E+00   -0.11737E+00  5632   0.656E-01    0.795E-01
DAV:   3    -0.359985151016E+04   -0.14196E-01   -0.26966E-02  5632   0.145E-01    0.456E-01
DAV:   4    -0.359985104705E+04    0.46311E-03   -0.21217E-03  6528   0.328E-02    0.368E-01
DAV:   5    -0.359985032447E+04    0.72258E-03   -0.19562E-03  5888   0.450E-02    0.180E-01
DAV:   6    -0.359985037434E+04   -0.49864E-04   -0.96157E-04  6528   0.257E-02    0.492E-02
DAV:   7    -0.359985038691E+04   -0.12576E-04   -0.13336E-04  5760   0.105E-02    0.244E-02
DAV:   8    -0.359985038888E+04   -0.19673E-05   -0.56319E-05  7040   0.577E-03    0.112E-02
DAV:   9    -0.359985039332E+04   -0.44375E-05   -0.44093E-05  6912   0.409E-03    0.826E-03
DAV:  10    -0.359985039790E+04   -0.45852E-05   -0.25394E-05  6400   0.271E-03    0.691E-03
DAV:  11    -0.359985040253E+04   -0.46237E-05   -0.57871E-05  5504   0.332E-03    0.586E-03
DAV:  12    -0.359985040762E+04   -0.50903E-05   -0.84494E-05  6272   0.362E-03    0.561E-03
DAV:  13    -0.359985041391E+04   -0.62939E-05   -0.22709E-05  5888   0.206E-03    0.518E-03
DAV:  14    -0.359985041802E+04   -0.41149E-05   -0.28062E-05  5760   0.149E-03    0.488E-03
DAV:  15    -0.359985041926E+04   -0.12329E-05   -0.24765E-04  6400   0.537E-03    0.590E-03
DAV:  16    -0.359985043097E+04   -0.11715E-04   -0.46446E-05  6528   0.260E-03    0.495E-03
DAV:  17    -0.359985043620E+04   -0.52256E-05   -0.19521E-05  5760   0.150E-03    0.453E-03
DAV:  18    -0.359985041431E+04    0.21887E-04   -0.12343E-03  6144   0.125E-02    0.905E-03
DAV:  19    -0.359985041907E+04   -0.47591E-05   -0.92706E-04  6272   0.799E-03    0.918E-03
DAV:  20    -0.359985043747E+04   -0.18402E-04   -0.70179E-04  6016   0.673E-03    0.823E-03
DAV:  21    -0.359985046236E+04   -0.24886E-04   -0.34783E-04  6400   0.543E-03    0.636E-03
DAV:  22    -0.359985043645E+04    0.25910E-04   -0.12199E-03  6400   0.102E-02    0.929E-03
DAV:  23    -0.359985048678E+04   -0.50334E-04   -0.12644E-04  6144   0.613E-03    0.463E-03
DAV:  24    -0.359985049650E+04   -0.97146E-05   -0.78735E-05  5760   0.272E-03    0.339E-03
DAV:  25    -0.359985050435E+04   -0.78508E-05   -0.11528E-05  5760   0.233E-03    0.230E-03
DAV:  26    -0.359985050500E+04   -0.64867E-06   -0.27646E-05  5248   0.138E-03    0.230E-03
DAV:  27    -0.359985050414E+04    0.85458E-06   -0.74304E-05  5888   0.255E-03    0.281E-03
DAV:  28    -0.359985050805E+04   -0.39114E-05   -0.38098E-06  5248   0.159E-03    0.193E-03
DAV:  29    -0.359985050830E+04   -0.24967E-06   -0.10972E-06  4352   0.883E-04
 augmentation electrons   1811.76503877522     
 soft         electrons  0.000000000000000E+000
 total        electrons   1811.76503877522     
 augmentation electrons -5.729081541817065E-002
 soft         electrons  0.000000000000000E+000
 total        electrons -5.729081541817065E-002
 augmentation electrons   1941.17778632520     
 soft         electrons  0.000000000000000E+000
 total        electrons   1941.17778632520     
 augmentation electrons   1883.66062645320     
 soft         electrons  0.000000000000000E+000
 total        electrons   1883.66062645320     
 augmentation electrons   54.6593158736363     
 soft         electrons   1757.10566783551     
 total        electrons   1811.76498370915     
 augmentation electrons   27.1546954449044     
 soft         electrons   1757.10566783551     
 total        electrons   43.9426845902127     
 translations:           0           1           0
  21 F= -.36377375E+04 E0= -.36377375E+04  d E =-.284844E-01  mag=    44.0000
 curvature:   0.67 expect dE= 0.110E+00 dE for cont linesearch  0.119E-02
 ZBRENT: bracketing found
 ZBRENT: interpolating
 opt :   0.6150  next Energy= -3637.742818 (dE=-0.338E-01)
 bond charge predicted
       N       E                     dE             d eps       ncg     rms          rms(c)
DAV:   1    -0.359981792670E+04    0.32581E-01   -0.52984E+00  5760   0.204E+00    0.902E-01
DAV:   2    -0.359984888553E+04   -0.30959E-01   -0.33928E-01  5632   0.353E-01    0.422E-01
DAV:   3    -0.359985239934E+04   -0.35138E-02   -0.80127E-03  5120   0.801E-02    0.243E-01
DAV:   4    -0.359985227628E+04    0.12305E-03   -0.61156E-04  6400   0.178E-02    0.196E-01
DAV:   5    -0.359985206043E+04    0.21585E-03   -0.58080E-04  5888   0.247E-02    0.939E-02
DAV:   6    -0.359985207505E+04   -0.14616E-04   -0.27450E-04  6528   0.136E-02    0.254E-02
DAV:   7    -0.359985207799E+04   -0.29423E-05   -0.37226E-05  5888   0.559E-03    0.127E-02
DAV:   8    -0.359985207829E+04   -0.30620E-06   -0.13819E-05  6784   0.302E-03    0.585E-03
DAV:   9    -0.359985207921E+04   -0.91446E-06   -0.94745E-06  6144   0.204E-03
 augmentation electrons   1811.74474867061     
 soft         electrons  0.000000000000000E+000
 total        electrons   1811.74474867061     
 augmentation electrons -5.608677166323493E-002
 soft         electrons  0.000000000000000E+000
 total        electrons -5.608677166323493E-002
 augmentation electrons   1967.72798095499     
 soft         electrons  0.000000000000000E+000
 total        electrons   1967.72798095499     
 augmentation electrons   1910.21082108299     
 soft         electrons  0.000000000000000E+000
 total        electrons   1910.21082108299     
 augmentation electrons   54.6373929864912     
 soft         electrons   1757.10729916094     
 total        electrons   1811.74469214743     
 augmentation electrons   27.1553506619502     
 soft         electrons   1757.10729916094     
 total        electrons   43.9438879297376     
 translations:           0           1           0
  22 F= -.36377431E+04 E0= -.36377431E+04  d E =-.340251E-01  mag=    44.0000
 curvature:  -2.39 expect dE=-0.183E+00 dE for cont linesearch -0.310E-06
 trial: gam= 0.66945 g(F)=  0.766E-01 g(S)=  0.000E+00 ort =-0.386E-03 (trialstep = 0.252E+00)
 search vector abs. value=  0.589E+00
 bond charge predicted
       N       E                     dE             d eps       ncg     rms          rms(c)
DAV:   1    -0.359985382504E+04   -0.17467E-02   -0.26707E+00  5376   0.146E+00    0.627E-01
DAV:   2    -0.359986762115E+04   -0.13796E-01   -0.15088E-01  5376   0.255E-01    0.302E-01
DAV:   3    -0.359986853422E+04   -0.91306E-03   -0.36822E-03  5376   0.593E-02    0.180E-01
DAV:   4    -0.359986843800E+04    0.96219E-04   -0.30309E-04  6400   0.143E-02    0.139E-01
DAV:   5    -0.359986832005E+04    0.11795E-03   -0.31424E-04  6144   0.184E-02    0.619E-02
DAV:   6    -0.359986833268E+04   -0.12630E-04   -0.13083E-04  5888   0.100E-02    0.136E-02
DAV:   7    -0.359986833263E+04    0.48210E-07   -0.15877E-05  6272   0.399E-03    0.684E-03
DAV:   8    -0.359986833258E+04    0.50524E-07   -0.37590E-06  5760   0.173E-03
 augmentation electrons   1811.75870361822     
 soft         electrons  0.000000000000000E+000
 total        electrons   1811.75870361822     
 augmentation electrons -5.682272383123981E-002
 soft         electrons  0.000000000000000E+000
 total        electrons -5.682272383123981E-002
 augmentation electrons   1952.84929329439     
 soft         electrons  0.000000000000000E+000
 total        electrons   1952.84929329439     
 augmentation electrons   1895.33213342239     
 soft         electrons  0.000000000000000E+000
 total        electrons   1895.33213342239     
 augmentation electrons   54.6554207804700     
 soft         electrons   1757.10322719989     
 total        electrons   1811.75864798036     
 augmentation electrons   27.1545953203319     
 soft         electrons   1757.10322719989     
 total        electrons   43.9431524538853     
 translations:           0           1           0
  23 F= -.36377560E+04 E0= -.36377560E+04  d E =-.129094E-01  mag=    44.0000
 trial-energy change:   -0.012909  1 .order   -0.013739   -0.019249   -0.008229
 step:   0.4402(harm=  0.4402)  dis= 0.01402  next Energy= -3637.759870 (dE=-0.168E-01)
 bond charge predicted
       N       E                     dE             d eps       ncg     rms          rms(c)
DAV:   1    -0.359986533509E+04    0.29975E-02   -0.14868E+00  5376   0.109E+00    0.466E-01
DAV:   2    -0.359987308358E+04   -0.77485E-02   -0.84214E-02  5632   0.191E-01    0.226E-01
DAV:   3    -0.359987355026E+04   -0.46668E-03   -0.20859E-03  5632   0.453E-02    0.135E-01
DAV:   4    -0.359987349877E+04    0.51489E-04   -0.16723E-04  6400   0.106E-02    0.104E-01
DAV:   5    -0.359987343743E+04    0.61341E-04   -0.18265E-04  6016   0.135E-02    0.465E-02
DAV:   6    -0.359987344641E+04   -0.89800E-05   -0.77064E-05  5888   0.732E-03    0.105E-02
DAV:   7    -0.359987344715E+04   -0.74394E-06   -0.10239E-05  6144   0.287E-03    0.562E-03
DAV:   8    -0.359987344788E+04   -0.72620E-06   -0.57185E-06  5888   0.138E-03
 augmentation electrons   1811.76883994217     
 soft         electrons  0.000000000000000E+000
 total        electrons   1811.76883994217     
 augmentation electrons -5.720045252154116E-002
 soft         electrons  0.000000000000000E+000
 total        electrons -5.720045252154116E-002
 augmentation electrons   1944.61570716337     
 soft         electrons  0.000000000000000E+000
 total        electrons   1944.61570716337     
 augmentation electrons   1887.09854729137     
 soft         electrons  0.000000000000000E+000
 total        electrons   1887.09854729137     
 augmentation electrons   54.6686246390500     
 soft         electrons   1757.10016035385     
 total        electrons   1811.76878499290     
 augmentation electrons   27.1542272323839     
 soft         electrons   1757.10016035385     
 total        electrons   43.9427751185312     
 translations:           0           1           0
  24 F= -.36377586E+04 E0= -.36377586E+04  d E =-.155316E-01  mag=    44.0000
 curvature:  -1.70 expect dE=-0.692E-01 dE for cont linesearch -0.950E-07
 trial: gam= 0.52094 g(F)=  0.408E-01 g(S)=  0.000E+00 ort = 0.182E-03 (trialstep = 0.290E+00)
 search vector abs. value=  0.201E+00
 bond charge predicted
       N       E                     dE             d eps       ncg     rms          rms(c)
DAV:   1    -0.359987760748E+04   -0.41603E-02   -0.11872E+00  5504   0.101E+00    0.424E-01
DAV:   2    -0.359988315642E+04   -0.55489E-02   -0.61047E-02  5632   0.176E-01    0.211E-01
DAV:   3    -0.359988335272E+04   -0.19630E-03   -0.15722E-03  5632   0.417E-02    0.129E-01
DAV:   4    -0.359988330849E+04    0.44227E-04   -0.13602E-04  6912   0.102E-02    0.965E-02
DAV:   5    -0.359988325848E+04    0.50017E-04   -0.16119E-04  6656   0.123E-02    0.411E-02
DAV:   6    -0.359988326791E+04   -0.94289E-05   -0.74290E-05  5888   0.719E-03    0.939E-03
DAV:   7    -0.359988326938E+04   -0.14775E-05   -0.11277E-05  6272   0.267E-03    0.596E-03
DAV:   8    -0.359988327080E+04   -0.14134E-05   -0.94648E-06  5760   0.142E-03    0.413E-03
DAV:   9    -0.359988327222E+04   -0.14273E-05   -0.87844E-06  5504   0.109E-03    0.347E-03
DAV:  10    -0.359988327375E+04   -0.15275E-05   -0.11870E-05  5120   0.113E-03    0.324E-03
DAV:  11    -0.359988327540E+04   -0.16537E-05   -0.26771E-05  5376   0.165E-03    0.317E-03
DAV:  12    -0.359988327715E+04   -0.17459E-05   -0.47732E-05  5376   0.210E-03    0.323E-03
[...]
 soft         electrons  0.000000000000000E+000
 total        electrons -5.645107734145685E-002
 augmentation electrons   1972.43410150256     
 soft         electrons  0.000000000000000E+000
 total        electrons   1972.43410150256     
 augmentation electrons   1914.91694163056     
 soft         electrons  0.000000000000000E+000
 total        electrons   1914.91694163056     
 augmentation electrons   54.7473165844979     
 soft         electrons   1757.09516894554     
 total        electrons   1811.84248553004     
 augmentation electrons   27.1492534823106     
 soft         electrons   1757.09516894554     
 total        electrons   43.9435291951996     
 translations:           0           1           0
 103 F= -.36378563E+04 E0= -.36378563E+04  d E =-.134540E-02  mag=    44.0000
 curvature:  -2.06 expect dE=-0.883E-02 dE for cont linesearch -0.765E-05
 trial: gam= 0.38003 g(F)=  0.429E-02 g(S)=  0.000E+00 ort = 0.423E-03 (trialstep = 0.250E+00)
 search vector abs. value=  0.116E-01
 bond charge predicted
       N       E                     dE             d eps       ncg     rms          rms(c)
DAV:   1    -0.359996491131E+04   -0.22992E-03   -0.51290E-02  5760   0.293E-01    0.929E-02
DAV:   2    -0.359996517544E+04   -0.26413E-03   -0.30249E-03  5632   0.439E-02    0.484E-02
DAV:   3    -0.359996520742E+04   -0.31985E-04   -0.11702E-04  5632   0.116E-02    0.272E-02
DAV:   4    -0.359996520362E+04    0.38047E-05   -0.14593E-05  6528   0.393E-03    0.162E-02
DAV:   5    -0.359996520361E+04    0.94587E-08   -0.85243E-06  6144   0.307E-03
 augmentation electrons   1811.84202678086     
 soft         electrons  0.000000000000000E+000
 total        electrons   1811.84202678086     
 augmentation electrons -5.649248983269815E-002
 soft         electrons  0.000000000000000E+000
 total        electrons -5.649248983269815E-002
 augmentation electrons   1970.28331929381     
 soft         electrons  0.000000000000000E+000
 total        electrons   1970.28331929381     
 augmentation electrons   1912.76615942181     
 soft         electrons  0.000000000000000E+000
 total        electrons   1912.76615942181     
 augmentation electrons   54.7470234538929     
 soft         electrons   1757.09495515000     
 total        electrons   1811.84197860389     
 augmentation electrons   27.1491914584813     
 soft         electrons   1757.09495515000     
 total        electrons   43.9434875995010     
 translations:           0           1           0
 104 F= -.36378569E+04 E0= -.36378569E+04  d E =-.558909E-03  mag=    44.0000
 trial-energy change:   -0.000559  1 .order   -0.000751   -0.001111   -0.000391
 step:   0.3854(harm=  0.3854)  dis= 0.00092  next Energy= -3637.857191 (dE=-0.858E-03)
 bond charge predicted
       N       E                     dE             d eps       ncg     rms          rms(c)
DAV:   1    -0.359996510936E+04    0.94258E-04   -0.15174E-02  6272   0.159E-01    0.504E-02
DAV:   2    -0.359996518760E+04   -0.78236E-04   -0.89434E-04  5632   0.239E-02    0.263E-02
DAV:   3    -0.359996519722E+04   -0.96204E-05   -0.34394E-05  5632   0.626E-03    0.148E-02
DAV:   4    -0.359996519630E+04    0.91315E-06   -0.50471E-06  6784   0.218E-03
 augmentation electrons   1811.84174720164     
 soft         electrons  0.000000000000000E+000
 total        electrons   1811.84174720164     
 augmentation electrons -5.655825600373620E-002
 soft         electrons  0.000000000000000E+000
 total        electrons -5.655825600373620E-002
 augmentation electrons   1969.10794182135     
 soft         electrons  0.000000000000000E+000
 total        electrons   1969.10794182135     
 augmentation electrons   1911.59078194935     
 soft         electrons  0.000000000000000E+000
 total        electrons   1911.59078194935     
 augmentation electrons   54.7468609768745     
 soft         electrons   1757.09483795564     
 total        electrons   1811.84169893252     
 augmentation electrons   27.1491152360501     
 soft         electrons   1757.09483795564     
 total        electrons   43.9434217343081     
 translations:           0           1           0
 105 F= -.36378569E+04 E0= -.36378569E+04  d E =-.564797E-03  mag=    44.0000
 curvature:  -0.50 expect dE=-0.124E-02 dE for cont linesearch -0.108E-05
 trial: gam= 0.58568 g(F)=  0.247E-02 g(S)=  0.000E+00 ort = 0.158E-03 (trialstep = 0.277E+00)
 search vector abs. value=  0.662E-02
 bond charge predicted
       N       E                     dE             d eps       ncg     rms          rms(c)
DAV:   1    -0.359996547850E+04   -0.28128E-03   -0.33453E-02  5760   0.241E-01    0.764E-02
DAV:   2    -0.359996566319E+04   -0.18469E-03   -0.20367E-03  5632   0.350E-02    0.388E-02
DAV:   3    -0.359996568959E+04   -0.26398E-04   -0.80114E-05  5632   0.951E-03    0.213E-02
DAV:   4    -0.359996568848E+04    0.11071E-05   -0.77002E-06  6656   0.271E-03    0.139E-02
DAV:   5    -0.359996568848E+04   -0.26048E-08   -0.52496E-06  5504   0.231E-03
 augmentation electrons   1811.84116090433     
 soft         electrons  0.000000000000000E+000
 total        electrons   1811.84116090433     
 augmentation electrons -5.657960329426256E-002
 soft         electrons  0.000000000000000E+000
 total        electrons -5.657960329426256E-002
 augmentation electrons   1968.06827319832     
 soft         electrons  0.000000000000000E+000
 total        electrons   1968.06827319832     
 augmentation electrons   1910.55111332632     
 soft         electrons  0.000000000000000E+000
 total        electrons   1910.55111332632     
 augmentation electrons   54.7465520862149     
 soft         electrons   1757.09456057019     
 total        electrons   1811.84111265640     
 augmentation electrons   27.1491344361941     
 soft         electrons   1757.09456057019     
 total        electrons   43.9434002438844     
 translations:           0           1           0
 106 F= -.36378574E+04 E0= -.36378574E+04  d E =-.476477E-03  mag=    44.0000
 trial-energy change:   -0.000476  1 .order   -0.000563   -0.000710   -0.000417
 step:   0.6693(harm=  0.6693)  dis= 0.00113  next Energy= -3637.857757 (dE=-0.859E-03)
 bond charge predicted
       N       E                     dE             d eps       ncg     rms          rms(c)
DAV:   1    -0.359996546707E+04    0.22141E-03   -0.67573E-02  5760   0.341E-01    0.109E-01
DAV:   2    -0.359996584109E+04   -0.37402E-03   -0.41007E-03  5632   0.498E-02    0.549E-02
DAV:   3    -0.359996589023E+04   -0.49144E-04   -0.16162E-04  5504   0.135E-02    0.302E-02
DAV:   4    -0.359996588747E+04    0.27581E-05   -0.15280E-05  6144   0.392E-03    0.195E-02
DAV:   5    -0.359996588713E+04    0.34645E-06   -0.76405E-06  6016   0.321E-03
 augmentation electrons   1811.84031984150     
 soft         electrons  0.000000000000000E+000
 total        electrons   1811.84031984150     
 augmentation electrons -5.663659706491415E-002
 soft         electrons  0.000000000000000E+000
 total        electrons -5.663659706491415E-002
 augmentation electrons   1966.58637611046     
 soft         electrons  0.000000000000000E+000
 total        electrons   1966.58637611046     
 augmentation electrons   1909.06921623846     
 soft         electrons  0.000000000000000E+000
 total        electrons   1909.06921623846     
 augmentation electrons   54.7460907219948     
 soft         electrons   1757.09418090619     
 total        electrons   1811.84027162818     
 augmentation electrons   27.1491371911550     
 soft         electrons   1757.09418090619     
 total        electrons   43.9433430498641     
 translations:           0           1           0
 107 F= -.36378575E+04 E0= -.36378575E+04  d E =-.642181E-03  mag=    44.0000
 curvature:  -0.86 expect dE=-0.271E-02 dE for cont linesearch -0.219E-06
 trial: gam= 1.23110 g(F)=  0.314E-02 g(S)=  0.000E+00 ort = 0.410E-04 (trialstep = 0.177E+00)
 search vector abs. value=  0.133E-01
 bond charge predicted
       N       E                     dE             d eps       ncg     rms          rms(c)
DAV:   1    -0.359996613706E+04   -0.24958E-03   -0.27561E-02  5760   0.220E-01    0.718E-02
DAV:   2    -0.359996629799E+04   -0.16094E-03   -0.17595E-03  5632   0.321E-02    0.358E-02
DAV:   3    -0.359996631995E+04   -0.21951E-04   -0.67166E-05  5632   0.868E-03    0.195E-02
DAV:   4    -0.359996631874E+04    0.12053E-05   -0.62289E-06  6400   0.238E-03    0.129E-02
DAV:   5    -0.359996631846E+04    0.27729E-06   -0.46664E-06  5760   0.219E-03
 augmentation electrons   1811.84011789149     
 soft         electrons  0.000000000000000E+000
 total        electrons   1811.84011789149     
 augmentation electrons -5.663426057341159E-002
 soft         electrons  0.000000000000000E+000
 total        electrons -5.663426057341159E-002
 augmentation electrons   1966.06333175902     
 soft         electrons  0.000000000000000E+000
 total        electrons   1966.06333175902     
 augmentation electrons   1908.54617188702     
 soft         electrons  0.000000000000000E+000
 total        electrons   1908.54617188702     
 augmentation electrons   54.7460557713381     
 soft         electrons   1757.09401377711     
 total        electrons   1811.84006954845     
 augmentation electrons   27.1492021680864     
 soft         electrons   1757.09401377711     
 total        electrons   43.9433452566985     
 translations:           0           1           0
 108 F= -.36378580E+04 E0= -.36378580E+04  d E =-.506098E-03  mag=    44.0000
 trial-energy change:   -0.000506  1 .order   -0.000476   -0.000565   -0.000387
 step:   0.3140(harm=  0.5618)  dis= 0.00076  next Energy= -3637.858210 (dE=-0.669E-03)
 bond charge predicted
       N       E                     dE             d eps       ncg     rms          rms(c)
DAV:   1    -0.359996642219E+04   -0.10345E-03   -0.16386E-02  6016   0.169E-01    0.554E-02
DAV:   2    -0.359996651797E+04   -0.95786E-04   -0.10444E-03  5632   0.247E-02    0.276E-02
DAV:   3    -0.359996653110E+04   -0.13125E-04   -0.39787E-05  5632   0.668E-03    0.151E-02
DAV:   4    -0.359996653043E+04    0.66812E-06   -0.37789E-06  5888   0.183E-03
 augmentation electrons   1811.84003123944     
 soft         electrons  0.000000000000000E+000
 total        electrons   1811.84003123944     
 augmentation electrons -5.659392579599980E-002
 soft         electrons  0.000000000000000E+000
 total        electrons -5.659392579599980E-002
 augmentation electrons   1965.65328632502     
 soft         electrons  0.000000000000000E+000
 total        electrons   1965.65328632502     
 augmentation electrons   1908.13612645302     
 soft         electrons  0.000000000000000E+000
 total        electrons   1908.13612645302     
 augmentation electrons   54.7461096981704     
 soft         electrons   1757.09387310034     
 total        electrons   1811.83998279852     
 augmentation electrons   27.1492940761595     
 soft         electrons   1757.09387310034     
 total        electrons   43.9433854926146     
 translations:           0           1           0
 109 F= -.36378583E+04 E0= -.36378583E+04  d E =-.774229E-03  mag=    44.0000
 curvature:  -0.68 expect dE=-0.109E-02 dE for cont linesearch -0.110E-03
 ZBRENT: increasing intervall
 opt :   0.5875  next Energy= -3637.858518 (dE=-0.977E-03)
 bond charge predicted
       N       E                     dE             d eps       ncg     rms          rms(c)
DAV:   1    -0.359996621239E+04    0.31871E-03   -0.64985E-02  5760   0.339E-01    0.110E-01
DAV:   2    -0.359996659740E+04   -0.38501E-03   -0.41570E-03  5376   0.491E-02    0.552E-02
DAV:   3    -0.359996664741E+04   -0.50008E-04   -0.16009E-04  5376   0.132E-02    0.300E-02
DAV:   4    -0.359996664484E+04    0.25707E-05   -0.13078E-05  6400   0.348E-03    0.200E-02
DAV:   5    -0.359996664407E+04    0.77371E-06   -0.73750E-06  5760   0.324E-03
 augmentation electrons   1811.83981487794     
 soft         electrons  0.000000000000000E+000
 total        electrons   1811.83981487794     
 augmentation electrons -5.660260478013781E-002
 soft         electrons  0.000000000000000E+000
 total        electrons -5.660260478013781E-002
 augmentation electrons   1964.81821116822     
 soft         electrons  0.000000000000000E+000
 total        electrons   1964.81821116822     
 augmentation electrons   1907.30105129622     
 soft         electrons  0.000000000000000E+000
 total        electrons   1907.30105129622     
 augmentation electrons   54.7461434118392     
 soft         electrons   1757.09362283501     
 total        electrons   1811.83976624685     
 augmentation electrons   27.1493875668087     
 soft         electrons   1757.09362283501     
 total        electrons   43.9433766190015     
 translations:           0           1           0
 110 F= -.36378585E+04 E0= -.36378585E+04  d E =-.100351E-02  mag=    44.0000
 curvature:  -1.26 expect dE=-0.405E-02 dE for cont linesearch -0.158E-05
 trial: gam= 1.07002 g(F)=  0.321E-02 g(S)=  0.000E+00 ort =-0.129E-03 (trialstep = 0.190E+00)
 search vector abs. value=  0.181E-01
 bond charge predicted
       N       E                     dE             d eps       ncg     rms          rms(c)
DAV:   1    -0.359996670009E+04   -0.55244E-04   -0.41946E-02  5760   0.270E-01    0.892E-02
DAV:   2    -0.359996694819E+04   -0.24810E-03   -0.26499E-03  5632   0.395E-02    0.441E-02
DAV:   3    -0.359996697841E+04   -0.30229E-04   -0.97526E-05  5632   0.104E-02    0.240E-02
DAV:   4    -0.359996697675E+04    0.16636E-05   -0.84654E-06  6144   0.279E-03    0.159E-02
DAV:   5    -0.359996697614E+04    0.60660E-06   -0.51210E-06  6016   0.256E-03
 augmentation electrons   1811.83977741385     
 soft         electrons  0.000000000000000E+000
 total        electrons   1811.83977741385     
 augmentation electrons -5.655822102295782E-002
 soft         electrons  0.000000000000000E+000
 total        electrons -5.655822102295782E-002
 augmentation electrons   1964.54664318572     
 soft         electrons  0.000000000000000E+000
 total        electrons   1964.54664318572     
 augmentation electrons   1907.02948331372     
 soft         electrons  0.000000000000000E+000
 total        electrons   1907.02948331372     
 augmentation electrons   54.7461138212690     
 soft         electrons   1757.09361458523     
 total        electrons   1811.83972840650     
 augmentation electrons   27.1495425841015     
 soft         electrons   1757.09361458523     
 total        electrons   43.9434208341387     
 translations:           0           1           0
 111 F= -.36378591E+04 E0= -.36378591E+04  d E =-.528155E-03  mag=    44.0000
 trial-energy change:   -0.000528  1 .order   -0.000478   -0.000583   -0.000374
 step:   0.2954(harm=  0.5298)  dis= 0.00084  next Energy= -3637.859185 (dE=-0.641E-03)
 bond charge predicted
       N       E                     dE             d eps       ncg     rms          rms(c)
DAV:   1    -0.359996698964E+04   -0.12885E-04   -0.12945E-02  6016   0.150E-01    0.495E-02
DAV:   2    -0.359996706617E+04   -0.76533E-04   -0.81685E-04  5632   0.219E-02    0.244E-02
DAV:   3    -0.359996707562E+04   -0.94480E-05   -0.29907E-05  5632   0.576E-03    0.133E-02
DAV:   4    -0.359996707516E+04    0.45502E-06   -0.27697E-06  5248   0.155E-03
 augmentation electrons   1811.83974247340     
 soft         electrons  0.000000000000000E+000
 total        electrons   1811.83974247340     
 augmentation electrons -5.658780627045384E-002
 soft         electrons  0.000000000000000E+000
 total        electrons -5.658780627045384E-002
 augmentation electrons   1964.38710353286     
 soft         electrons  0.000000000000000E+000
 total        electrons   1964.38710353286     
 augmentation electrons   1906.86994366086     
 soft         electrons  0.000000000000000E+000
 total        electrons   1906.86994366086     
 augmentation electrons   54.7460864761480     
 soft         electrons   1757.09360678293     
 total        electrons   1811.83969325908     
 augmentation electrons   27.1495767121568     
 soft         electrons   1757.09360678293     
 total        electrons   43.9433911565475     
 translations:           0           1           0
 112 F= -.36378593E+04 E0= -.36378593E+04  d E =-.738597E-03  mag=    44.0000
 curvature:  -0.82 expect dE=-0.167E-02 dE for cont linesearch -0.945E-04
 ZBRENT: increasing intervall
 opt :   0.5063  next Energy= -3637.859477 (dE=-0.933E-03)
 bond charge predicted
       N       E                     dE             d eps       ncg     rms          rms(c)
DAV:   1    -0.359996676614E+04    0.30948E-03   -0.51324E-02  5760   0.300E-01    0.983E-02
DAV:   2    -0.359996707274E+04   -0.30660E-03   -0.32520E-03  5632   0.436E-02    0.489E-02
DAV:   3    -0.359996711041E+04   -0.37676E-04   -0.11982E-04  5632   0.114E-02    0.265E-02
DAV:   4    -0.359996710866E+04    0.17526E-05   -0.97051E-06  6400   0.296E-03    0.178E-02
DAV:   5    -0.359996710799E+04    0.67001E-06   -0.55018E-06  5760   0.279E-03
 augmentation electrons   1811.83973008652     
 soft         electrons  0.000000000000000E+000
 total        electrons   1811.83973008652     
 augmentation electrons -5.664793030927421E-002
 soft         electrons  0.000000000000000E+000
 total        electrons -5.664793030927421E-002
 augmentation electrons   1964.04909888297     
 soft         electrons  0.000000000000000E+000
 total        electrons   1964.04909888297     
 augmentation electrons   1906.53193901098     
 soft         electrons  0.000000000000000E+000
 total        electrons   1906.53193901098     
 augmentation electrons   54.7460790951955     
 soft         electrons   1757.09360136801     
 total        electrons   1811.83968046320     
 augmentation electrons   27.1496369278737     
 soft         electrons   1757.09360136801     
 total        electrons   43.9433308505578     
 translations:           0           1           0
 113 F= -.36378595E+04 E0= -.36378595E+04  d E =-.990987E-03  mag=    44.0000
 curvature:  -1.69 expect dE=-0.486E-02 dE for cont linesearch -0.136E-04
 trial: gam= 0.61795 g(F)=  0.288E-02 g(S)=  0.000E+00 ort = 0.383E-03 (trialstep = 0.253E+00)
 search vector abs. value=  0.103E-01
 bond charge predicted
       N       E                     dE             d eps       ncg     rms          rms(c)
DAV:   1    -0.359996731587E+04   -0.20721E-03   -0.44833E-02  5632   0.267E-01    0.841E-02
DAV:   2    -0.359996752391E+04   -0.20804E-03   -0.22807E-03  5632   0.391E-02    0.431E-02
DAV:   3    -0.359996753914E+04   -0.15227E-04   -0.80049E-05  5632   0.953E-03    0.245E-02
DAV:   4    -0.359996753620E+04    0.29387E-05   -0.94332E-06  6400   0.319E-03    0.151E-02
DAV:   5    -0.359996753561E+04    0.58663E-06   -0.53244E-06  6016   0.260E-03
 augmentation electrons   1811.83961780645     
 soft         electrons  0.000000000000000E+000
 total        electrons   1811.83961780645     
 augmentation electrons -5.670400671536203E-002
 soft         electrons  0.000000000000000E+000
 total        electrons -5.670400671536203E-002
 augmentation electrons   1964.35066320866     
 soft         electrons  0.000000000000000E+000
 total        electrons   1964.35066320866     
 augmentation electrons   1906.83350333666     
 soft         electrons  0.000000000000000E+000
 total        electrons   1906.83350333666     
 augmentation electrons   54.7457733434005     
 soft         electrons   1757.09379431318     
 total        electrons   1811.83956765658     
 augmentation electrons   27.1496509584562     
 soft         electrons   1757.09379431318     
 total        electrons   43.9432745950478     
 translations:           0           1           0
 114 F= -.36378602E+04 E0= -.36378602E+04  d E =-.638150E-03  mag=    44.0000
 trial-energy change:   -0.000638  1 .order   -0.000596   -0.000789   -0.000403
 step:   0.3857(harm=  0.5179)  dis= 0.00076  next Energy= -3637.860285 (dE=-0.750E-03)
 reached required accuracy - stopping structural energy minimisation
 writing wavefunctions
