 ----------------------------------------------------
    OOO  PPPP  EEEEE N   N M   M PPPP
   O   O P   P E     NN  N MM MM P   P
   O   O PPPP  EEEEE N N N M M M PPPP   -- VERSION
   O   O P     E     N  NN M   M P
    OOO  P     EEEEE N   N M   M P
 ----------------------------------------------------
 running  512 mpi-ranks, with    1 threads/rank
 distrk:  each k-point on  512 cores,    1 groups
 distr:  one band on    4 cores,  128 groups
 vasp.6.3.2 27Jun22 (build Nov 12 2024 19:13:04) complex                        
  
 POSCAR found type information on POSCAR MnBrN C H 
 POSCAR found :  5 types and     635 ions
 scaLAPACK will be used
 LDA part: xc-table for Pade appr. of Perdew
 POSCAR, INCAR and KPOINTS ok, starting setup
 FFT: planning ... GRIDC
 FFT: planning ... GRID_SOFT
 FFT: planning ... GRID
 WAVECAR not read
 entering main loop
       N       E                     dE             d eps       ncg     rms          rms(c)
DAV:   1     0.984200028175E+04    0.98420E+04   -0.80297E+05  5376   0.119E+03
DAV:   2    -0.261770098647E+04   -0.12460E+05   -0.12041E+05  6400   0.259E+02
DAV:   3    -0.382856930864E+04   -0.12109E+04   -0.12019E+04  6400   0.864E+01
DAV:   4    -0.385962389075E+04   -0.31055E+02   -0.30841E+02  6656   0.158E+01
DAV:   5    -0.386060488043E+04   -0.98099E+00   -0.97989E+00  6656   0.266E+00    0.110E+02
DAV:   6    -0.364783233849E+04    0.21277E+03   -0.11308E+03  6528   0.287E+01    0.105E+02
DAV:   7    -0.360786583797E+04    0.39967E+02   -0.25463E+02  6528   0.217E+01    0.564E+01
DAV:   8    -0.360034820153E+04    0.75176E+01   -0.48827E+01  6528   0.618E+00    0.328E+01
DAV:   9    -0.359238642975E+04    0.79618E+01   -0.26834E+01  6144   0.449E+00    0.164E+01
DAV:  10    -0.359355719711E+04   -0.11708E+01   -0.35169E+00  5760   0.200E+00    0.701E+00
DAV:  11    -0.359347541205E+04    0.81785E-01   -0.79664E-01  5760   0.968E-01    0.282E+00
DAV:  12    -0.359380569794E+04   -0.33029E+00   -0.38839E-01  5888   0.845E-01    0.178E+00
DAV:  13    -0.359403599121E+04   -0.23029E+00   -0.12967E-01  5888   0.411E-01    0.150E+00
DAV:  14    -0.359415595914E+04   -0.11997E+00   -0.62627E-02  5888   0.234E-01    0.763E-01
DAV:  15    -0.359423528881E+04   -0.79330E-01   -0.48185E-02  5760   0.219E-01    0.375E-01
DAV:  16    -0.359428357290E+04   -0.48284E-01   -0.42208E-02  5888   0.136E-01    0.232E-01
DAV:  17    -0.359429780265E+04   -0.14230E-01   -0.19146E-02  5888   0.804E-02    0.174E-01
DAV:  18    -0.359430128789E+04   -0.34852E-02   -0.69185E-03  5632   0.541E-02    0.143E-01
DAV:  19    -0.359430132336E+04   -0.35467E-04   -0.67719E-04  6016   0.294E-02    0.127E-01
DAV:  20    -0.359430141101E+04   -0.87652E-04   -0.22641E-04  5760   0.191E-02    0.113E-01
DAV:  21    -0.359430139845E+04    0.12560E-04   -0.23108E-04  5888   0.170E-02    0.970E-02
DAV:  22    -0.359430132873E+04    0.69715E-04   -0.14003E-04  5760   0.116E-02    0.838E-02
DAV:  23    -0.359430124729E+04    0.81445E-04   -0.11190E-04  5760   0.888E-03    0.684E-02
DAV:  24    -0.359430115288E+04    0.94413E-04   -0.10434E-04  5760   0.109E-02    0.575E-02
DAV:  25    -0.359430114530E+04    0.75817E-05   -0.71808E-05  5760   0.109E-02    0.481E-02
DAV:  26    -0.359430115382E+04   -0.85221E-05   -0.11421E-04  5888   0.150E-02    0.347E-02
DAV:  27    -0.359430115693E+04   -0.31116E-05   -0.91066E-05  6016   0.937E-03    0.251E-02
DAV:  28    -0.359430114670E+04    0.10229E-04   -0.32165E-05  5632   0.531E-03    0.165E-02
DAV:  29    -0.359430113459E+04    0.12105E-04   -0.15291E-05  5760   0.538E-03    0.991E-03
DAV:  30    -0.359430113083E+04    0.37632E-05   -0.12164E-05  6016   0.462E-03    0.620E-03
DAV:  31    -0.359430113084E+04   -0.11016E-07   -0.72535E-06  5632   0.317E-03
 augmentation electrons   1804.87794658262     
 soft         electrons  0.000000000000000E+000
 total        electrons   1804.87794658262     
 augmentation electrons -8.221559628813427E-002
 soft         electrons  0.000000000000000E+000
 total        electrons -8.221559628813427E-002
 augmentation electrons   1897.59959528426     
 soft         electrons  0.000000000000000E+000
 total        electrons   1897.59959528426     
 augmentation electrons   1840.97656334226     
 soft         electrons  0.000000000000000E+000
 total        electrons   1840.97656334226     
 augmentation electrons   56.1510015009439     
 soft         electrons   1748.72685792869     
 total        electrons   1804.87785942964     
 augmentation electrons   37.9951053507776     
 soft         electrons   1748.72685792869     
 total        electrons   60.9177142071918     
 translations:           0           1           0
   1 F= -.36319322E+04 E0= -.36319322E+04  d E =-.363193E+04  mag=    60.9999
 curvature:   0.00 expect dE= 0.000E+00 dE for cont linesearch  0.000E+00
 trial: gam= 0.00000 g(F)=  0.612E+00 g(S)=  0.000E+00 ort = 0.000E+00 (trialstep = 0.100E+01)
 search vector abs. value=  0.612E+00
 bond charge predicted
       N       E                     dE             d eps       ncg     rms          rms(c)
DAV:   1    -0.359397831991E+04    0.32281E+00   -0.55964E+01  5760   0.569E+00    0.551E+00
DAV:   2    -0.359472301338E+04   -0.74469E+00   -0.67475E+00  6016   0.116E+00    0.332E+00
DAV:   3    -0.359474340378E+04   -0.20390E-01   -0.13773E-01  5888   0.213E-01    0.128E+00
DAV:   4    -0.359474065683E+04    0.27470E-02   -0.88950E-03  6144   0.567E-02    0.860E-01
DAV:   5    -0.359473766811E+04    0.29887E-02   -0.46805E-03  6144   0.590E-02    0.436E-01
DAV:   6    -0.359473710460E+04    0.56350E-03   -0.29103E-03  5888   0.456E-02    0.639E-02
DAV:   7    -0.359473711941E+04   -0.14810E-04   -0.65946E-04  6016   0.187E-02    0.514E-02
DAV:   8    -0.359473709806E+04    0.21349E-04   -0.33513E-05  6144   0.481E-03    0.331E-02
DAV:   9    -0.359473707807E+04    0.19999E-04   -0.26868E-05  5632   0.544E-03    0.161E-02
DAV:  10    -0.359473707079E+04    0.72781E-05   -0.14986E-05  6272   0.389E-03    0.700E-03
DAV:  11    -0.359473706901E+04    0.17736E-05   -0.52863E-06  6016   0.208E-03    0.516E-03
DAV:  12    -0.359473706768E+04    0.13348E-05   -0.14169E-06  5248   0.177E-03    0.353E-03
DAV:  13    -0.359473706684E+04    0.83676E-06   -0.22787E-06  5248   0.205E-03
 augmentation electrons   1804.92617870880     
 soft         electrons  0.000000000000000E+000
 total        electrons   1804.92617870880     
 augmentation electrons -8.203064069744884E-002
 soft         electrons  0.000000000000000E+000
 total        electrons -8.203064069744884E-002
 augmentation electrons   1965.66600489236     
 soft         electrons  0.000000000000000E+000
 total        electrons   1965.66600489236     
 augmentation electrons   1909.04297295036     
 soft         electrons  0.000000000000000E+000
 total        electrons   1909.04297295036     
 augmentation electrons   56.2190194138471     
 soft         electrons   1748.70709787682     
 total        electrons   1804.92611729066     
 augmentation electrons   38.0812226649087     
 soft         electrons   1748.70709787682     
 total        electrons   60.9179376669531     
 translations:           0           1           0
   2 F= -.36323852E+04 E0= -.36323852E+04  d E =-.453007E+00  mag=    61.0000
 trial-energy change:   -0.453007  1 .order   -0.455944   -0.612157   -0.299730
 step:   2.0874(harm=  1.9594)  dis= 0.07797  next Energy= -3632.544387 (dE=-0.612E+00)
 bond charge predicted
       N       E                     dE             d eps       ncg     rms          rms(c)
DAV:   1    -0.359398177492E+04    0.75529E+00   -0.65546E+01  5632   0.610E+00    0.599E+00
DAV:   2    -0.359487061611E+04   -0.88884E+00   -0.80593E+00  5888   0.127E+00    0.355E+00
DAV:   3    -0.359490048715E+04   -0.29871E-01   -0.21823E-01  6144   0.240E-01    0.136E+00
DAV:   4    -0.359489755870E+04    0.29284E-02   -0.13247E-02  6272   0.614E-02    0.920E-01
DAV:   5    -0.359489435449E+04    0.32042E-02   -0.41571E-03  6016   0.545E-02    0.538E-01
DAV:   6    -0.359489327761E+04    0.10769E-02   -0.46908E-03  6016   0.593E-02    0.923E-02
DAV:   7    -0.359489334423E+04   -0.66615E-04   -0.11765E-03  6016   0.257E-02    0.620E-02
DAV:   8    -0.359489330809E+04    0.36142E-04   -0.49478E-05  5888   0.617E-03    0.373E-02
DAV:   9    -0.359489328246E+04    0.25631E-04   -0.24441E-05  5632   0.533E-03    0.222E-02
DAV:  10    -0.359489327331E+04    0.91479E-05   -0.19204E-05  6016   0.445E-03    0.876E-03
DAV:  11    -0.359489326990E+04    0.34073E-05   -0.73306E-06  6016   0.276E-03    0.508E-03
DAV:  12    -0.359489326822E+04    0.16844E-05   -0.27695E-06  5504   0.221E-03    0.352E-03
DAV:  13    -0.359489326755E+04    0.66770E-06   -0.28432E-06  5248   0.218E-03
 augmentation electrons   1805.11954932142     
 soft         electrons  0.000000000000000E+000
 total        electrons   1805.11954932142     
 augmentation electrons -8.128444471022914E-002
 soft         electrons  0.000000000000000E+000
 total        electrons -8.128444471022914E-002
 augmentation electrons   2154.34902801024     
 soft         electrons  0.000000000000000E+000
 total        electrons   2154.34902801024     
 augmentation electrons   2097.72599606824     
 soft         electrons  0.000000000000000E+000
 total        electrons   2097.72599606824     
 augmentation electrons   56.4321487781460     
 soft         electrons   1748.68732879213     
 total        electrons   1805.11947757028     
 augmentation electrons   38.1661426937223     
 soft         electrons   1748.68732879213     
 total        electrons   60.9186832283396     
 translations:           0           1           0
   3 F= -.36325545E+04 E0= -.36325545E+04  d E =-.622302E+00  mag=    61.0000
 curvature:  -0.96 expect dE=-0.776E+00 dE for cont linesearch -0.202E-03
 trial: gam= 1.29919 g(F)=  0.807E+00 g(S)=  0.000E+00 ort = 0.113E-01 (trialstep = 0.399E+00)
 search vector abs. value=  0.187E+01
 bond charge predicted
       N       E                     dE             d eps       ncg     rms          rms(c)
DAV:   1    -0.359468571052E+04    0.20756E+00   -0.29487E+01  5632   0.493E+00    0.349E+00
DAV:   2    -0.359499827244E+04   -0.31256E+00   -0.29418E+00  6016   0.902E-01    0.195E+00
DAV:   3    -0.359500278998E+04   -0.45175E-02   -0.60715E-02  5888   0.169E-01    0.849E-01
DAV:   4    -0.359500036802E+04    0.24220E-02   -0.48972E-03  6144   0.531E-02    0.575E-01
DAV:   5    -0.359499795900E+04    0.24090E-02   -0.33341E-03  5888   0.589E-02    0.253E-01
DAV:   6    -0.359499779023E+04    0.16877E-03   -0.18213E-03  6144   0.357E-02    0.470E-02
DAV:   7    -0.359499778798E+04    0.22481E-05   -0.24279E-04  6144   0.129E-02    0.304E-02
DAV:   8    -0.359499777553E+04    0.12444E-04   -0.16195E-05  6144   0.402E-03    0.172E-02
DAV:   9    -0.359499776700E+04    0.85353E-05   -0.12514E-05  5632   0.424E-03    0.694E-03
DAV:  10    -0.359499776501E+04    0.19872E-05   -0.63408E-06  6016   0.259E-03    0.480E-03
DAV:  11    -0.359499776437E+04    0.63839E-06   -0.21771E-06  5632   0.152E-03
 augmentation electrons   1805.44676802636     
 soft         electrons  0.000000000000000E+000
 total        electrons   1805.44676802636     
 augmentation electrons -8.043885907981474E-002
 soft         electrons  0.000000000000000E+000
 total        electrons -8.043885907981474E-002
 augmentation electrons   2417.29569355141     
 soft         electrons  0.000000000000000E+000
 total        electrons   2417.29569355141     
 augmentation electrons   2360.67266160941     
 soft         electrons  0.000000000000000E+000
 total        electrons   2360.67266160941     
 augmentation electrons   56.7605450068520     
 soft         electrons   1748.68614437202     
 total        electrons   1805.44668937887     
 augmentation electrons   38.2088982718851     
 soft         electrons   1748.68614437202     
 total        electrons   60.9195281879105     
 translations:           0           1           0
   4 F= -.36326672E+04 E0= -.36326672E+04  d E =-.112674E+00  mag=    61.0000
 trial-energy change:   -0.112674  1 .order   -0.107082   -0.327468    0.113303
 step:   0.3018(harm=  0.2962)  dis= 0.01805  next Energy= -3632.680860 (dE=-0.126E+00)
 bond charge predicted
       N       E                     dE             d eps       ncg     rms          rms(c)
DAV:   1    -0.359499428874E+04    0.34763E-02   -0.17405E+00  6144   0.120E+00    0.837E-01
DAV:   2    -0.359501232951E+04   -0.18041E-01   -0.16956E-01  5632   0.220E-01    0.404E-01
DAV:   3    -0.359501288593E+04   -0.55642E-03   -0.56309E-03  6016   0.443E-02    0.202E-01
DAV:   4    -0.359501275855E+04    0.12739E-03   -0.36321E-04  6272   0.129E-02    0.142E-01
DAV:   5    -0.359501260788E+04    0.15067E-03   -0.19422E-04  5888   0.151E-02    0.651E-02
DAV:   6    -0.359501260233E+04    0.55485E-05   -0.11839E-04  6144   0.918E-03    0.149E-02
DAV:   7    -0.359501260225E+04    0.72410E-07   -0.15632E-05  6272   0.334E-03    0.798E-03
DAV:   8    -0.359501260105E+04    0.12043E-05   -0.13842E-06  5760   0.146E-03    0.381E-03
DAV:   9    -0.359501260037E+04    0.68356E-06   -0.88222E-07  5504   0.114E-03
 augmentation electrons   1805.34298379018     
 soft         electrons  0.000000000000000E+000
 total        electrons   1805.34298379018     
 augmentation electrons -8.036498864184508E-002
 soft         electrons  0.000000000000000E+000
 total        electrons -8.036498864184508E-002
 augmentation electrons   2339.23907893622     
 soft         electrons  0.000000000000000E+000
 total        electrons   2339.23907893622     
 augmentation electrons   2282.61604699422     
 soft         electrons  0.000000000000000E+000
 total        electrons   2282.61604699422     
 augmentation electrons   56.6563138956621     
 soft         electrons   1748.68659205860     
 total        electrons   1805.34290595426     
 augmentation electrons   38.1989482845715     
 soft         electrons   1748.68659205860     
 total        electrons   60.9196019660568     
 translations:           0           1           0
   5 F= -.36326802E+04 E0= -.36326802E+04  d E =-.125658E+00  mag=    61.0000
 curvature:  -0.34 expect dE=-0.330E-01 dE for cont linesearch -0.280E-04
 trial: gam= 0.17924 g(F)=  0.983E-01 g(S)=  0.000E+00 ort =-0.125E-01 (trialstep = 0.379E+00)
 search vector abs. value=  0.154E+00
 bond charge predicted
       N       E                     dE             d eps       ncg     rms          rms(c)
DAV:   1    -0.359501124851E+04    0.13525E-02   -0.23296E+00  6272   0.158E+00    0.858E-01
DAV:   2    -0.359503205763E+04   -0.20809E-01   -0.19193E-01  6016   0.269E-01    0.434E-01
DAV:   3    -0.359503241944E+04   -0.36181E-03   -0.54336E-03  6016   0.524E-02    0.199E-01
DAV:   4    -0.359503224689E+04    0.17255E-03   -0.53860E-04  6272   0.179E-02    0.133E-01
DAV:   5    -0.359503208915E+04    0.15775E-03   -0.23956E-04  5888   0.172E-02    0.482E-02
DAV:   6    -0.359503208922E+04   -0.70781E-07   -0.94952E-05  6144   0.805E-03    0.131E-02
DAV:   7    -0.359503208816E+04    0.10550E-05   -0.61333E-06  6528   0.244E-03    0.726E-03
DAV:   8    -0.359503208708E+04    0.10884E-05   -0.13812E-06  5376   0.152E-03    0.340E-03
DAV:   9    -0.359503208670E+04    0.37796E-06   -0.73148E-07  5248   0.110E-03
 augmentation electrons   1805.48142219008     
 soft         electrons  0.000000000000000E+000
 total        electrons   1805.48142219008     
 augmentation electrons -8.037603189178183E-002
 soft         electrons  0.000000000000000E+000
 total        electrons -8.037603189178183E-002
 augmentation electrons   2443.54658238774     
 soft         electrons  0.000000000000000E+000
 total        electrons   2443.54658238774     
 augmentation electrons   2386.92355044574     
 soft         electrons  0.000000000000000E+000
 total        electrons   2386.92355044574     
 augmentation electrons   56.7920646848473     
 soft         electrons   1748.68927984757     
 total        electrons   1805.48134453241     
 augmentation electrons   38.2065849483531     
 soft         electrons   1748.68927984757     
 total        electrons   60.9195910428704     
 translations:           0           1           0
   6 F= -.36327010E+04 E0= -.36327010E+04  d E =-.208906E-01  mag=    61.0000
 trial-energy change:   -0.020891  1 .order   -0.017236   -0.036444    0.001972
 step:   0.3668(harm=  0.3598)  dis= 0.00631  next Energy= -3632.701079 (dE=-0.209E-01)
 bond charge predicted
       N       E                     dE             d eps       ncg     rms          rms(c)
DAV:   1    -0.359503202727E+04    0.59809E-04   -0.25157E-03  6016   0.529E-02    0.308E-02
DAV:   2    -0.359503205486E+04   -0.27597E-04   -0.25341E-04  5888   0.936E-03    0.150E-02
DAV:   3    -0.359503205585E+04   -0.99171E-06   -0.82955E-06  5888   0.196E-03
 augmentation electrons   1805.47644142526     
 soft         electrons  0.000000000000000E+000
 total        electrons   1805.47644142526     
 augmentation electrons -8.031977745152813E-002
 soft         electrons  0.000000000000000E+000
 total        electrons -8.031977745152813E-002
 augmentation electrons   2439.80591849596     
 soft         electrons  0.000000000000000E+000
 total        electrons   2439.80591849596     
 augmentation electrons   2383.18288655396     
 soft         electrons  0.000000000000000E+000
 total        electrons   2383.18288655396     
 augmentation electrons   56.7870984631990     
 soft         electrons   1748.68926527616     
 total        electrons   1805.47636373936     
 augmentation electrons   38.2063166238105     
 soft         electrons   1748.68926527616     
 total        electrons   60.9196472865183     
 translations:           0           1           0
   7 F= -.36327010E+04 E0= -.36327010E+04  d E =-.207961E-01  mag=    61.0000
 curvature:  -0.25 expect dE=-0.132E-01 dE for cont linesearch -0.607E-05
 trial: gam= 0.50732 g(F)=  0.522E-01 g(S)=  0.000E+00 ort =-0.193E-02 (trialstep = 0.377E+00)
 search vector abs. value=  0.899E-01
 bond charge predicted
       N       E                     dE             d eps       ncg     rms          rms(c)
DAV:   1    -0.359503111816E+04    0.93670E-03   -0.12535E+00  5760   0.117E+00    0.752E-01
DAV:   2    -0.359504825956E+04   -0.17141E-01   -0.15362E-01  5760   0.198E-01    0.340E-01
DAV:   3    -0.359504894425E+04   -0.68469E-03   -0.48064E-03  5760   0.395E-02    0.146E-01
DAV:   4    -0.359504889558E+04    0.48672E-04   -0.35061E-04  6656   0.109E-02    0.114E-01
DAV:   5    -0.359504881333E+04    0.82244E-04   -0.85386E-05  5888   0.109E-02    0.587E-02
DAV:   6    -0.359504880278E+04    0.10548E-04   -0.72816E-05  6400   0.799E-03    0.115E-02
DAV:   7    -0.359504880320E+04   -0.41942E-06   -0.12191E-05  6400   0.311E-03    0.604E-03
DAV:   8    -0.359504880263E+04    0.57225E-06   -0.98703E-07  5376   0.132E-03
 augmentation electrons   1805.60939376026     
 soft         electrons  0.000000000000000E+000
 total        electrons   1805.60939376026     
 augmentation electrons -8.019402642295097E-002
 soft         electrons  0.000000000000000E+000
 total        electrons -8.019402642295097E-002
 augmentation electrons   2536.97524805146     
 soft         electrons  0.000000000000000E+000
 total        electrons   2536.97524805146     
 augmentation electrons   2480.35221610946     
 soft         electrons  0.000000000000000E+000
 total        electrons   2480.35221610946     
 augmentation electrons   56.9184055347926     
 soft         electrons   1748.69091246845     
 total        electrons   1805.60931800324     
 augmentation electrons   38.2097994325080     
 soft         electrons   1748.69091246845     
 total        electrons   60.9197735493647     
 translations:           0           1           0
   8 F= -.36327174E+04 E0= -.36327174E+04  d E =-.164716E-01  mag=    61.0000
 trial-energy change:   -0.016472  1 .order   -0.014723   -0.019318   -0.010127
 step:   0.5352(harm=  0.7920)  dis= 0.00750  next Energy= -3632.719681 (dE=-0.187E-01)
 bond charge predicted
       N       E                     dE             d eps       ncg     rms          rms(c)
DAV:   1    -0.359505048225E+04   -0.16790E-02   -0.22581E-01  6272   0.491E-01    0.291E-01
DAV:   2    -0.359505306675E+04   -0.25845E-02   -0.22693E-02  5888   0.810E-02    0.134E-01
DAV:   3    -0.359505315389E+04   -0.87140E-04   -0.66743E-04  5632   0.157E-02    0.571E-02
DAV:   4    -0.359505314394E+04    0.99457E-05   -0.48877E-05  6400   0.448E-03    0.403E-02
DAV:   5    -0.359505313121E+04    0.12730E-04   -0.19046E-05  5888   0.473E-03    0.174E-02
DAV:   6    -0.359505313086E+04    0.35101E-06   -0.77913E-06  6144   0.220E-03
 augmentation electrons   1805.67021594931     
 soft         electrons  0.000000000000000E+000
 total        electrons   1805.67021594931     
 augmentation electrons -8.027484169644497E-002
 soft         electrons  0.000000000000000E+000
 total        electrons -8.027484169644497E-002
 augmentation electrons   2580.47594485603     
 soft         electrons  0.000000000000000E+000
 total        electrons   2580.47594485603     
 augmentation electrons   2523.85291291403     
 soft         electrons  0.000000000000000E+000
 total        electrons   2523.85291291403     
 augmentation electrons   56.9785113353243     
 soft         electrons   1748.69162999006     
 total        electrons   1805.67014132539     
 augmentation electrons   38.2111039680215     
 soft         electrons   1748.69162999006     
 total        electrons   60.9196930596774     
 translations:           0           1           0
   9 F= -.36327216E+04 E0= -.36327216E+04  d E =-.206727E-01  mag=    61.0000
 curvature:  -0.43 expect dE=-0.214E-01 dE for cont linesearch -0.140E-02
 ZBRENT: increasing intervall
 opt :   0.8519  next Energy= -3632.723952 (dE=-0.230E-01)
 bond charge predicted
       N       E                     dE             d eps       ncg     rms          rms(c)
DAV:   1    -0.359504460425E+04    0.85270E-02   -0.88503E-01  5760   0.982E-01    0.630E-01
DAV:   2    -0.359505672053E+04   -0.12116E-01   -0.10847E-01  5888   0.167E-01    0.284E-01
DAV:   3    -0.359505720019E+04   -0.47966E-03   -0.33885E-03  5632   0.330E-02    0.123E-01
DAV:   4    -0.359505716727E+04    0.32920E-04   -0.24643E-04  6656   0.896E-03    0.966E-02
DAV:   5    -0.359505710912E+04    0.58149E-04   -0.61735E-05  5888   0.912E-03    0.494E-02
DAV:   6    -0.359505710223E+04    0.68921E-05   -0.50604E-05  6400   0.648E-03    0.966E-03
DAV:   7    -0.359505710248E+04   -0.24698E-06   -0.77215E-06  6400   0.247E-03
 augmentation electrons   1805.79205382635     
 soft         electrons  0.000000000000000E+000
 total        electrons   1805.79205382635     
 augmentation electrons -8.034125626363042E-002
 soft         electrons  0.000000000000000E+000
 total        electrons -8.034125626363042E-002
 augmentation electrons   2666.47160162613     
 soft         electrons  0.000000000000000E+000
 total        electrons   2666.47160162613     
 augmentation electrons   2609.84856968413     
 soft         electrons  0.000000000000000E+000
 total        electrons   2609.84856968413     
 augmentation electrons   57.0989005782533     
 soft         electrons   1748.69308131085     
 total        electrons   1805.79198188910     
 augmentation electrons   38.2138008770516     
 soft         electrons   1748.69308131085     
 total        electrons   60.9196274419783     
 translations:           0           1           0
  10 F= -.36327253E+04 E0= -.36327253E+04  d E =-.243894E-01  mag=    61.0000
 curvature:  -0.71 expect dE=-0.778E-01 dE for cont linesearch -0.539E-04
 trial: gam= 2.10820 g(F)=  0.109E+00 g(S)=  0.000E+00 ort =-0.260E-02 (trialstep = 0.853E-01)
 search vector abs. value=  0.497E+00
 bond charge predicted
       N       E                     dE             d eps       ncg     rms          rms(c)
DAV:   1    -0.359506096418E+04   -0.38620E-02   -0.33723E-01  5888   0.558E-01    0.399E-01
DAV:   2    -0.359506594561E+04   -0.49814E-02   -0.43730E-02  5760   0.962E-02    0.173E-01
DAV:   3    -0.359506615431E+04   -0.20870E-03   -0.13150E-03  5760   0.186E-02    0.731E-02
DAV:   4    -0.359506614840E+04    0.59182E-05   -0.89596E-05  6528   0.427E-03    0.609E-02
DAV:   5    -0.359506612998E+04    0.18417E-04   -0.14283E-05  5888   0.418E-03    0.378E-02
DAV:   6    -0.359506612450E+04    0.54774E-05   -0.26140E-05  6400   0.487E-03    0.853E-03
DAV:   7    -0.359506612491E+04   -0.40859E-06   -0.49177E-06  5888   0.167E-03
 augmentation electrons   1805.84974281659     
 soft         electrons  0.000000000000000E+000
 total        electrons   1805.84974281659     
 augmentation electrons -8.029309464841226E-002
 soft         electrons  0.000000000000000E+000
 total        electrons -8.029309464841226E-002
 augmentation electrons   2705.84823375096     
 soft         electrons  0.000000000000000E+000
 total        electrons   2705.84823375096     
 augmentation electrons   2649.22520180896     
 soft         electrons  0.000000000000000E+000
 total        electrons   2649.22520180896     
 augmentation electrons   57.1559885018453     
 soft         electrons   1748.69368446498     
 total        electrons   1805.84967296682     
 augmentation electrons   38.2150983412721     
 soft         electrons   1748.69368446498     
 total        electrons   60.9196761678187     
 translations:           0           1           0
  11 F= -.36327339E+04 E0= -.36327339E+04  d E =-.856834E-02  mag=    61.0000
 ZBRENT: can't locate minimum, use default step
 trial-energy change:   -0.008568  1 .order   -0.008501   -0.008811   -0.008191
 step:   0.3411(harm=  1.2112)  dis= 0.01134  next Energy= -3632.787913 (dE=-0.626E-01)
 bond charge predicted
       N       E                     dE             d eps       ncg     rms          rms(c)
DAV:   1    -0.359504650493E+04    0.19620E-01   -0.30784E+00  5888   0.168E+00    0.113E+00
DAV:   2    -0.359508722492E+04   -0.40720E-01   -0.35371E-01  5760   0.284E-01    0.508E-01
DAV:   3    -0.359508877517E+04   -0.15503E-02   -0.99250E-03  5632   0.533E-02    0.210E-01
DAV:   4    -0.359508869423E+04    0.80948E-04   -0.65688E-04  6528   0.132E-02    0.156E-01
DAV:   5    -0.359508855558E+04    0.13864E-03   -0.14990E-04  6016   0.130E-02    0.882E-02
DAV:   6    -0.359508853359E+04    0.21998E-04   -0.14501E-04  6400   0.109E-02    0.186E-02
DAV:   7    -0.359508853555E+04   -0.19602E-05   -0.26612E-05  6272   0.426E-03    0.781E-03
DAV:   8    -0.359508853456E+04    0.99026E-06   -0.17203E-06  5504   0.161E-03
 augmentation electrons   1805.87573919364     
 soft         electrons  0.000000000000000E+000
 total        electrons   1805.87573919364     
 augmentation electrons -8.059683095877894E-002
 soft         electrons  0.000000000000000E+000
 total        electrons -8.059683095877894E-002
 augmentation electrons   2723.81338048158     
 soft         electrons  0.000000000000000E+000
 total        electrons   2723.81338048158     
 augmentation electrons   2667.19034853958     
 soft         electrons  0.000000000000000E+000
 total        electrons   2667.19034853958     
 augmentation electrons   57.1801843931298     
 soft         electrons   1748.69549054986     
 total        electrons   1805.87567494299     
 augmentation electrons   38.2185234870973     
 soft         electrons   1748.69549054986     
 total        electrons   60.9193738873127     
 translations:           0           1           0
  12 F= -.36327550E+04 E0= -.36327550E+04  d E =-.296156E-01  mag=    61.0000
 curvature:  -1.17 expect dE=-0.946E-01 dE for cont linesearch -0.108E-01
 ZBRENT: increasing intervall
 opt :   0.8528  next Energy= -3632.775065 (dE=-0.497E-01)
 bond charge predicted
       N       E                     dE             d eps       ncg     rms          rms(c)
DAV:   1    -0.359492373362E+04    0.16480E+00   -0.12123E+01  5760   0.334E+00    0.243E+00
DAV:   2    -0.359510452978E+04   -0.18080E+00   -0.15920E+00  5888   0.580E-01    0.118E+00
DAV:   3    -0.359511125607E+04   -0.67263E-02   -0.36465E-02  5632   0.105E-01    0.462E-01
DAV:   4    -0.359511089384E+04    0.36222E-03   -0.24646E-03  6400   0.263E-02    0.356E-01
DAV:   5    -0.359511032207E+04    0.57177E-03   -0.51408E-04  6016   0.250E-02    0.216E-01
DAV:   6    -0.359511017723E+04    0.14483E-03   -0.69184E-04  6272   0.248E-02    0.472E-02
DAV:   7    -0.359511018995E+04   -0.12711E-04   -0.14096E-04  6144   0.927E-03    0.170E-02
DAV:   8    -0.359511018615E+04    0.37972E-05   -0.77306E-06  6272   0.350E-03    0.800E-03
DAV:   9    -0.359511018469E+04    0.14617E-05   -0.32487E-06  6144   0.219E-03    0.469E-03
DAV:  10    -0.359511018428E+04    0.40894E-06   -0.12600E-06  5504   0.133E-03
 augmentation electrons   1805.60666042997     
 soft         electrons  0.000000000000000E+000
 total        electrons   1805.60666042997     
 augmentation electrons -8.060552433185106E-002
 soft         electrons  0.000000000000000E+000
 total        electrons -8.060552433185106E-002
 augmentation electrons   2537.83968477871     
 soft         electrons  0.000000000000000E+000
 total        electrons   2537.83968477871     
 augmentation electrons   2481.21665283671     
 soft         electrons  0.000000000000000E+000
 total        electrons   2481.21665283671     
 augmentation electrons   56.9074691842713     
 soft         electrons   1748.69913241261     
 total        electrons   1805.60660159688     
 augmentation electrons   38.2259967556495     
 soft         electrons   1748.69913241261     
 total        electrons   60.9193664533356     
 translations:           0           1           0
  13 F= -.36327738E+04 E0= -.36327738E+04  d E =-.485042E-01  mag=    61.0000
 curvature:  -2.18 expect dE=-0.316E+00 dE for cont linesearch -0.193E-03
 trial: gam= 1.00428 g(F)=  0.145E+00 g(S)=  0.000E+00 ort = 0.663E-02 (trialstep = 0.180E+00)
 search vector abs. value=  0.660E+00
 bond charge predicted
       N       E                     dE             d eps       ncg     rms          rms(c)
DAV:   1    -0.359511213875E+04   -0.19541E-02   -0.19577E+00  6144   0.134E+00    0.789E-01
DAV:   2    -0.359513165528E+04   -0.19517E-01   -0.17439E-01  5760   0.223E-01    0.362E-01
DAV:   3    -0.359513226621E+04   -0.61093E-03   -0.48085E-03  5760   0.423E-02    0.159E-01
DAV:   4    -0.359513219073E+04    0.75486E-04   -0.34263E-04  6400   0.118E-02    0.116E-01
DAV:   5    -0.359513209506E+04    0.95663E-04   -0.17847E-04  5760   0.143E-02    0.507E-02
DAV:   6    -0.359513209921E+04   -0.41464E-05   -0.72738E-05  6400   0.665E-03    0.101E-02
DAV:   7    -0.359513209931E+04   -0.96043E-07   -0.52843E-06  6016   0.220E-03
 augmentation electrons   1805.52206415742     
 soft         electrons  0.000000000000000E+000
 total        electrons   1805.52206415742     
 augmentation electrons -8.013183206645808E-002
 soft         electrons  0.000000000000000E+000
 total        electrons -8.013183206645808E-002
 augmentation electrons   2480.24342723629     
 soft         electrons  0.000000000000000E+000
 total        electrons   2480.24342723629     
 augmentation electrons   2423.62039529429     
 soft         electrons  0.000000000000000E+000
 total        electrons   2423.62039529429     
 augmentation electrons   56.8231021342250     
 soft         electrons   1748.69890420388     
 total        electrons   1805.52200633810     
 augmentation electrons   38.2277907568151     
 soft         electrons   1748.69890420388     
 total        electrons   60.9198400553221     
 translations:           0           1           0
  14 F= -.36327940E+04 E0= -.36327940E+04  d E =-.201799E-01  mag=    61.0000
 trial-energy change:   -0.020180  1 .order   -0.021199   -0.027236   -0.015163
 step:   0.4062(harm=  0.4062)  dis= 0.01391  next Energy= -3632.804567 (dE=-0.307E-01)
 bond charge predicted
       N       E                     dE             d eps       ncg     rms          rms(c)
DAV:   1    -0.359511105162E+04    0.21048E-01   -0.30908E+00  5888   0.169E+00    0.992E-01
DAV:   2    -0.359514220330E+04   -0.31152E-01   -0.27864E-01  5888   0.281E-01    0.465E-01
DAV:   3    -0.359514288387E+04   -0.68057E-03   -0.56826E-03  5760   0.518E-02    0.203E-01
DAV:   4    -0.359514274314E+04    0.14073E-03   -0.36276E-04  6528   0.143E-02    0.143E-01
DAV:   5    -0.359514259599E+04    0.14716E-03   -0.34127E-04  5760   0.191E-02    0.517E-02
DAV:   6    -0.359514260501E+04   -0.90236E-05   -0.11054E-04  6400   0.811E-03    0.114E-02
DAV:   7    -0.359514260418E+04    0.83334E-06   -0.81346E-06  6144   0.271E-03
 augmentation electrons   1805.41162711557     
 soft         electrons  0.000000000000000E+000
 total        electrons   1805.41162711557     
 augmentation electrons -7.988898515811205E-002
 soft         electrons  0.000000000000000E+000
 total        electrons -7.988898515811205E-002
 augmentation electrons   2413.99191802090     
 soft         electrons  0.000000000000000E+000
 total        electrons   2413.99191802090     
 augmentation electrons   2357.36888607890     
 soft         electrons  0.000000000000000E+000
 total        electrons   2357.36888607890     
 augmentation electrons   56.7129799381661     
 soft         electrons   1748.69858873629     
 total        electrons   1805.41156867446     
 augmentation electrons   38.2297278437044     
 soft         electrons   1748.69858873629     
 total        electrons   60.9200823666289     
 translations:           0           1           0
  15 F= -.36328024E+04 E0= -.36328024E+04  d E =-.285114E-01  mag=    61.0000
 curvature:  -0.89 expect dE=-0.727E-01 dE for cont linesearch -0.160E-05
 trial: gam= 0.69978 g(F)=  0.820E-01 g(S)=  0.000E+00 ort = 0.109E-02 (trialstep = 0.225E+00)
 search vector abs. value=  0.407E+00
 bond charge predicted
       N       E                     dE             d eps       ncg     rms          rms(c)
DAV:   1    -0.359514379568E+04   -0.11907E-02   -0.16681E+00  5888   0.117E+00    0.695E-01
DAV:   2    -0.359515933743E+04   -0.15542E-01   -0.14277E-01  5888   0.197E-01    0.310E-01
DAV:   3    -0.359515971746E+04   -0.38003E-03   -0.29573E-03  6144   0.343E-02    0.149E-01
DAV:   4    -0.359515967226E+04    0.45199E-04   -0.22319E-04  6400   0.938E-03    0.118E-01
DAV:   5    -0.359515959067E+04    0.81585E-04   -0.13702E-04  6016   0.123E-02    0.630E-02
DAV:   6    -0.359515959059E+04    0.82713E-07   -0.80761E-05  6784   0.730E-03    0.154E-02
DAV:   7    -0.359515959131E+04   -0.71619E-06   -0.10122E-05  5888   0.287E-03    0.644E-03
DAV:   8    -0.359515959106E+04    0.24687E-06   -0.11041E-06  5504   0.130E-03
 augmentation electrons   1805.38817075681     
 soft         electrons  0.000000000000000E+000
 total        electrons   1805.38817075681     
 augmentation electrons -7.949068685332288E-002
 soft         electrons  0.000000000000000E+000
 total        electrons -7.949068685332288E-002
 augmentation electrons   2403.93570612720     
 soft         electrons  0.000000000000000E+000
 total        electrons   2403.93570612720     
 augmentation electrons   2347.31267418520     
 soft         electrons  0.000000000000000E+000
 total        electrons   2347.31267418520     
 augmentation electrons   56.6918238861737     
 soft         electrons   1748.69628749343     
 total        electrons   1805.38811137960     
 augmentation electrons   38.2296584574607     
 soft         electrons   1748.69628749343     
 total        electrons   60.9204801923715     
 translations:           0           1           0
  16 F= -.36328172E+04 E0= -.36328172E+04  d E =-.148301E-01  mag=    61.0000
 trial-energy change:   -0.014830  1 .order   -0.015820   -0.018655   -0.012984
 step:   0.7412(harm=  0.7412)  dis= 0.02213  next Energy= -3632.833042 (dE=-0.307E-01)
 bond charge predicted
       N       E                     dE             d eps       ncg     rms          rms(c)
DAV:   1    -0.359510499993E+04    0.54591E-01   -0.88431E+00  5888   0.269E+00    0.150E+00
DAV:   2    -0.359517711310E+04   -0.72113E-01   -0.65699E-01  5888   0.441E-01    0.703E-01
DAV:   3    -0.359517839736E+04   -0.12843E-02   -0.12390E-02  6144   0.781E-02    0.325E-01
DAV:   4    -0.359517808509E+04    0.31228E-03   -0.84294E-04  6656   0.219E-02    0.235E-01
DAV:   5    -0.359517773995E+04    0.34514E-03   -0.93799E-04  5888   0.297E-02    0.924E-02
DAV:   6    -0.359517776682E+04   -0.26874E-04   -0.30549E-04  6528   0.135E-02    0.196E-02
DAV:   7    -0.359517776403E+04    0.27949E-05   -0.25983E-05  5888   0.470E-03    0.101E-02
DAV:   8    -0.359517776296E+04    0.10658E-05   -0.45471E-06  6400   0.205E-03    0.476E-03
DAV:   9    -0.359517776231E+04    0.64765E-06   -0.99967E-07  5504   0.170E-03
 augmentation electrons   1805.31571404734     
 soft         electrons  0.000000000000000E+000
 total        electrons   1805.31571404734     
 augmentation electrons -7.890429225078344E-002
 soft         electrons  0.000000000000000E+000
 total        electrons -7.890429225078344E-002
 augmentation electrons   2378.65391716498     
 soft         electrons  0.000000000000000E+000
 total        electrons   2378.65391716498     
 augmentation electrons   2322.03088522298     
 soft         electrons  0.000000000000000E+000
 total        electrons   2322.03088522298     
 augmentation electrons   56.6246368862916     
 soft         electrons   1748.69101270623     
 total        electrons   1805.31564959252     
 augmentation electrons   38.2292319352956     
 soft         electrons   1748.69101270623     
 total        electrons   60.9210652033571     
 translations:           0           1           0
  17 F= -.36328304E+04 E0= -.36328304E+04  d E =-.280915E-01  mag=    61.0000
 curvature:  -1.82 expect dE=-0.176E+00 dE for cont linesearch -0.199E-04
 trial: gam= 1.08238 g(F)=  0.969E-01 g(S)=  0.000E+00 ort = 0.211E-02 (trialstep = 0.231E+00)
 search vector abs. value=  0.578E+00
 bond charge predicted
       N       E                     dE             d eps       ncg     rms          rms(c)
DAV:   1    -0.359518130403E+04   -0.35411E-02   -0.23595E+00  5632   0.135E+00    0.729E-01
DAV:   2    -0.359519788534E+04   -0.16581E-01   -0.15954E-01  5760   0.231E-01    0.329E-01
DAV:   3    -0.359519819061E+04   -0.30528E-03   -0.39352E-03  6144   0.428E-02    0.173E-01
DAV:   4    -0.359519811047E+04    0.80143E-04   -0.31501E-04  6784   0.120E-02    0.135E-01
DAV:   5    -0.359519799488E+04    0.11559E-03   -0.24433E-04  6016   0.165E-02    0.617E-02
DAV:   6    -0.359519800027E+04   -0.53909E-05   -0.10712E-04  6656   0.822E-03    0.138E-02
DAV:   7    -0.359519800012E+04    0.14582E-06   -0.10281E-05  6144   0.306E-03    0.663E-03
DAV:   8    -0.359519799980E+04    0.32301E-06   -0.16214E-06  6016   0.147E-03
 augmentation electrons   1805.32047205479     
 soft         electrons  0.000000000000000E+000
 total        electrons   1805.32047205479     
 augmentation electrons -7.813372071729227E-002
 soft         electrons  0.000000000000000E+000
 total        electrons -7.813372071729227E-002
 augmentation electrons   2391.19153332985     
 soft         electrons  0.000000000000000E+000
 total        electrons   2391.19153332985     
 augmentation electrons   2334.56850138785     
 soft         electrons  0.000000000000000E+000
 total        electrons   2334.56850138785     
 augmentation electrons   56.6318759595754     
 soft         electrons   1748.68852887742     
 total        electrons   1805.32040483700     
 augmentation electrons   38.2278976319595     
 soft         electrons   1748.68852887742     
 total        electrons   60.9218356478467     
 translations:           0           1           0
  18 F= -.36328478E+04 E0= -.36328478E+04  d E =-.173897E-01  mag=    61.0000
 trial-energy change:   -0.017390  1 .order   -0.017866   -0.022933   -0.012800
 step:   0.5231(harm=  0.5231)  dis= 0.02194  next Energy= -3632.856399 (dE=-0.260E-01)
 bond charge predicted
       N       E                     dE             d eps       ncg     rms          rms(c)
DAV:   1    -0.359518263439E+04    0.15366E-01   -0.37673E+00  5632   0.171E+00    0.922E-01
DAV:   2    -0.359520907776E+04   -0.26443E-01   -0.25447E-01  5760   0.292E-01    0.417E-01
DAV:   3    -0.359520956102E+04   -0.48327E-03   -0.62888E-03  6144   0.542E-02    0.219E-01
DAV:   4    -0.359520943043E+04    0.13060E-03   -0.50657E-04  6784   0.154E-02    0.171E-01
DAV:   5    -0.359520924357E+04    0.18685E-03   -0.38847E-04  6016   0.210E-02    0.781E-02
DAV:   6    -0.359520925109E+04   -0.75203E-05   -0.17252E-04  6656   0.106E-02    0.175E-02
DAV:   7    -0.359520925091E+04    0.18631E-06   -0.17350E-05  6144   0.398E-03    0.841E-03
DAV:   8    -0.359520925023E+04    0.67866E-06   -0.25697E-06  6144   0.192E-03
 augmentation electrons   1805.31576557616     
 soft         electrons  0.000000000000000E+000
 total        electrons   1805.31576557616     
 augmentation electrons -7.707878794788205E-002
 soft         electrons  0.000000000000000E+000
 total        electrons -7.707878794788205E-002
 augmentation electrons   2401.85797183640     
 soft         electrons  0.000000000000000E+000
 total        electrons   2401.85797183640     
 augmentation electrons   2345.23493989440     
 soft         electrons  0.000000000000000E+000
 total        electrons   2345.23493989440     
 augmentation electrons   56.6303267223215     
 soft         electrons   1748.68536990850     
 total        electrons   1805.31569663083     
 augmentation electrons   38.2263324981336     
 soft         electrons   1748.68536990850     
 total        electrons   60.9228909280483     
 translations:           0           1           0
  19 F= -.36328555E+04 E0= -.36328555E+04  d E =-.250458E-01  mag=    61.0000
 curvature:  -1.52 expect dE=-0.109E+00 dE for cont linesearch -0.110E-04
 trial: gam= 0.73282 g(F)=  0.714E-01 g(S)=  0.000E+00 ort = 0.204E-02 (trialstep = 0.290E+00)
 search vector abs. value=  0.385E+00
 bond charge predicted
       N       E                     dE             d eps       ncg     rms          rms(c)
DAV:   1    -0.359521443445E+04   -0.51835E-02   -0.23304E+00  5632   0.134E+00    0.659E-01
DAV:   2    -0.359522787718E+04   -0.13443E-01   -0.13385E-01  6016   0.234E-01    0.305E-01
DAV:   3    -0.359522797090E+04   -0.93727E-04   -0.29973E-03  6272   0.434E-02    0.171E-01
DAV:   4    -0.359522789025E+04    0.80653E-04   -0.26448E-04  6400   0.125E-02    0.130E-01
DAV:   5    -0.359522778537E+04    0.10488E-03   -0.25091E-04  6400   0.162E-02    0.573E-02
DAV:   6    -0.359522779161E+04   -0.62414E-05   -0.10199E-04  6656   0.811E-03    0.124E-02
DAV:   7    -0.359522779096E+04    0.65828E-06   -0.97784E-06  5888   0.303E-03
 augmentation electrons   1805.33209900085     
 soft         electrons  0.000000000000000E+000
 total        electrons   1805.33209900085     
 augmentation electrons -7.623793025471359E-002
 soft         electrons  0.000000000000000E+000
 total        electrons -7.623793025471359E-002
 augmentation electrons   2423.10804558430     
 soft         electrons  0.000000000000000E+000
 total        electrons   2423.10804558430     
 augmentation electrons   2366.48501364230     
 soft         electrons  0.000000000000000E+000
 total        electrons   2366.48501364230     
 augmentation electrons   56.6473499139808     
 soft         electrons   1748.68468141816     
 total        electrons   1805.33203133214     
 augmentation electrons   38.2238086580555     
 soft         electrons   1748.68468141816     
 total        electrons   60.9237324561070     
 translations:           0           1           0
  20 F= -.36328709E+04 E0= -.36328709E+04  d E =-.153725E-01  mag=    61.0000
 trial-energy change:   -0.015373  1 .order   -0.016335   -0.021098   -0.011571
 step:   0.6412(harm=  0.6412)  dis= 0.02525  next Energy= -3632.878856 (dE=-0.234E-01)
 bond charge predicted
       N       E                     dE             d eps       ncg     rms          rms(c)
DAV:   1    -0.359521734933E+04    0.10442E-01   -0.34423E+00  5504   0.163E+00    0.803E-01
DAV:   2    -0.359523722000E+04   -0.19871E-01   -0.19781E-01  6016   0.285E-01    0.371E-01
DAV:   3    -0.359523734946E+04   -0.12946E-03   -0.44243E-03  6144   0.529E-02    0.208E-01
DAV:   4    -0.359523722938E+04    0.12008E-03   -0.39575E-04  6656   0.153E-02    0.158E-01
DAV:   5    -0.359523707170E+04    0.15768E-03   -0.36509E-04  6400   0.196E-02    0.715E-02
DAV:   6    -0.359523707981E+04   -0.81136E-05   -0.15456E-04  6528   0.101E-02    0.156E-02
DAV:   7    -0.359523707900E+04    0.81354E-06   -0.15751E-05  5888   0.382E-03    0.751E-03
DAV:   8    -0.359523707833E+04    0.67156E-06   -0.24406E-06  5888   0.173E-03
 augmentation electrons   1805.33270239464     
 soft         electrons  0.000000000000000E+000
 total        electrons   1805.33270239464     
 augmentation electrons -7.535267331524770E-002
 soft         electrons  0.000000000000000E+000
 total        electrons -7.535267331524770E-002
 augmentation electrons   2438.46039144644     
 soft         electrons  0.000000000000000E+000
 total        electrons   2438.46039144644     
 augmentation electrons   2381.83735950444     
 soft         electrons  0.000000000000000E+000
 total        electrons   2381.83735950444     
 augmentation electrons   56.6485248210324     
 soft         electrons   1748.68411463833     
 total        electrons   1805.33263945936     
 augmentation electrons   38.2205063996595     
 soft         electrons   1748.68411463833     
 total        electrons   60.9246188442437     
 translations:           0           1           0
  21 F= -.36328763E+04 E0= -.36328763E+04  d E =-.208152E-01  mag=    61.0000
 curvature:  -1.69 expect dE=-0.117E+00 dE for cont linesearch -0.398E-04
 trial: gam= 1.06433 g(F)=  0.693E-01 g(S)=  0.000E+00 ort =-0.301E-02 (trialstep = 0.278E+00)
 search vector abs. value=  0.499E+00
 bond charge predicted
       N       E                     dE             d eps       ncg     rms          rms(c)
DAV:   1    -0.359523647193E+04    0.60707E-03   -0.27139E+00  5504   0.142E+00    0.707E-01
DAV:   2    -0.359525137107E+04   -0.14899E-01   -0.15119E-01  5888   0.250E-01    0.325E-01
DAV:   3    -0.359525139342E+04   -0.22349E-04   -0.32385E-03  6272   0.464E-02    0.187E-01
DAV:   4    -0.359525128831E+04    0.10511E-03   -0.29704E-04  6272   0.134E-02    0.141E-01
DAV:   5    -0.359525115418E+04    0.13414E-03   -0.33097E-04  6528   0.186E-02    0.601E-02
DAV:   6    -0.359525116246E+04   -0.82795E-05   -0.12382E-04  6400   0.895E-03    0.132E-02
DAV:   7    -0.359525116141E+04    0.10465E-05   -0.11002E-05  5760   0.316E-03    0.670E-03
DAV:   8    -0.359525116081E+04    0.60075E-06   -0.20237E-06  5376   0.158E-03
 augmentation electrons   1805.32039430807     
 soft         electrons  0.000000000000000E+000
 total        electrons   1805.32039430807     
 augmentation electrons -7.416964356956626E-002
 soft         electrons  0.000000000000000E+000
 total        electrons -7.416964356956626E-002
 augmentation electrons   2446.14391546921     
 soft         electrons  0.000000000000000E+000
 total        electrons   2446.14391546921     
 augmentation electrons   2389.52088352721     
 soft         electrons  0.000000000000000E+000
 total        electrons   2389.52088352721     
 augmentation electrons   56.6361731818990     
 soft         electrons   1748.68416414745     
 total        electrons   1805.32033732935     
 augmentation electrons   38.2176074735197     
 soft         electrons   1748.68416414745     
 total        electrons   60.9258029788478     
 translations:           0           1           0
  22 F= -.36328875E+04 E0= -.36328875E+04  d E =-.111918E-01  mag=    61.0000
 trial-energy change:   -0.011192  1 .order   -0.011909   -0.018338   -0.005479
 step:   0.3959(harm=  0.3959)  dis= 0.01906  next Energy= -3632.889385 (dE=-0.131E-01)
 bond charge predicted
       N       E                     dE             d eps       ncg     rms          rms(c)
DAV:   1    -0.359525050933E+04    0.65208E-03   -0.49257E-01  5888   0.606E-01    0.300E-01
DAV:   2    -0.359525321269E+04   -0.27034E-02   -0.27441E-02  5888   0.107E-01    0.139E-01
DAV:   3    -0.359525321832E+04   -0.56330E-05   -0.58870E-04  6272   0.198E-02    0.797E-02
DAV:   4    -0.359525319977E+04    0.18550E-04   -0.53458E-05  6272   0.565E-03    0.602E-02
DAV:   5    -0.359525317714E+04    0.22632E-04   -0.60481E-05  6528   0.784E-03    0.253E-02
DAV:   6    -0.359525317920E+04   -0.20645E-05   -0.21730E-05  6272   0.368E-03    0.553E-03
DAV:   7    -0.359525317901E+04    0.18827E-06   -0.17182E-06  5120   0.127E-03
 augmentation electrons   1805.30939500145     
 soft         electrons  0.000000000000000E+000
 total        electrons   1805.30939500145     
 augmentation electrons -7.391738861785913E-002
 soft         electrons  0.000000000000000E+000
 total        electrons -7.391738861785913E-002
 augmentation electrons   2445.28090595222     
 soft         electrons  0.000000000000000E+000
 total        electrons   2445.28090595222     
 augmentation electrons   2388.65787401022     
 soft         electrons  0.000000000000000E+000
 total        electrons   2388.65787401022     
 augmentation electrons   56.6252211674854     
 soft         electrons   1748.68411967241     
 total        electrons   1805.30934083989     
 augmentation electrons   38.2161393340325     
 soft         electrons   1748.68411967241     
 total        electrons   60.9260557597633     
 translations:           0           1           0
  23 F= -.36328883E+04 E0= -.36328883E+04  d E =-.119801E-01  mag=    61.0000
 curvature:  -1.49 expect dE=-0.561E-01 dE for cont linesearch -0.115E-05
 trial: gam= 0.38883 g(F)=  0.375E-01 g(S)=  0.000E+00 ort =-0.619E-03 (trialstep = 0.301E+00)
 search vector abs. value=  0.112E+00
 bond charge predicted
       N       E                     dE             d eps       ncg     rms          rms(c)
DAV:   1    -0.359525786102E+04   -0.46818E-02   -0.76294E-01  5376   0.840E-01    0.366E-01
DAV:   2    -0.359526193216E+04   -0.40711E-02   -0.41435E-02  6016   0.142E-01    0.172E-01
DAV:   3    -0.359526192057E+04    0.11588E-04   -0.10111E-03  6400   0.268E-02    0.996E-02
DAV:   4    -0.359526188323E+04    0.37337E-04   -0.11135E-04  6400   0.901E-03    0.725E-02
DAV:   5    -0.359526185140E+04    0.31830E-04   -0.79262E-05  6144   0.956E-03    0.268E-02
DAV:   6    -0.359526185373E+04   -0.23315E-05   -0.30561E-05  6400   0.455E-03    0.624E-03
DAV:   7    -0.359526185341E+04    0.32388E-06   -0.22185E-06  6016   0.142E-03
 augmentation electrons   1805.28991686183     
 soft         electrons  0.000000000000000E+000
 total        electrons   1805.28991686183     
 augmentation electrons -7.345458671756513E-002
 soft         electrons  0.000000000000000E+000
 total        electrons -7.345458671756513E-002
 augmentation electrons   2441.94940997870     
 soft         electrons  0.000000000000000E+000
 total        electrons   2441.94940997870     
 augmentation electrons   2385.32637803670     
 soft         electrons  0.000000000000000E+000
 total        electrons   2385.32637803670     
 augmentation electrons   56.6047016165349     
 soft         electrons   1748.68516399608     
 total        electrons   1805.28986561262     
 augmentation electrons   38.2150136604268     
 soft         electrons   1748.68516399608     
 total        electrons   60.9265189977190     
 translations:           0           1           0
  24 F= -.36328963E+04 E0= -.36328963E+04  d E =-.798286E-02  mag=    61.0000
 trial-energy change:   -0.007983  1 .order   -0.007797   -0.011237   -0.004357
 step:   0.4546(harm=  0.4920)  dis= 0.01089  next Energy= -3632.897405 (dE=-0.912E-02)
 bond charge predicted
       N       E                     dE             d eps       ncg     rms          rms(c)
DAV:   1    -0.359526267909E+04   -0.82536E-03   -0.19782E-01  5888   0.427E-01    0.186E-01
DAV:   2    -0.359526373764E+04   -0.10585E-02   -0.10765E-02  6016   0.724E-02    0.882E-02
DAV:   3    -0.359526373458E+04    0.30633E-05   -0.26239E-04  6400   0.137E-02    0.509E-02
DAV:   4    -0.359526372505E+04    0.95309E-05   -0.28844E-05  6400   0.456E-03    0.370E-02
DAV:   5    -0.359526371728E+04    0.77629E-05   -0.20907E-05  6144   0.483E-03    0.136E-02
DAV:   6    -0.359526371807E+04   -0.78557E-06   -0.77847E-06  6400   0.226E-03
 augmentation electrons   1805.27932506471     
 soft         electrons  0.000000000000000E+000
 total        electrons   1805.27932506471     
 augmentation electrons -7.322721296771462E-002
 soft         electrons  0.000000000000000E+000
 total        electrons -7.322721296771462E-002
 augmentation electrons   2439.00827726733     
 soft         electrons  0.000000000000000E+000
 total        electrons   2439.00827726733     
 augmentation electrons   2382.38524532533     
 soft         electrons  0.000000000000000E+000
 total        electrons   2382.38524532533     
 augmentation electrons   56.5935670790393     
 soft         electrons   1748.68570817402     
 total        electrons   1805.27927525306     
 augmentation electrons   38.2144330242438     
 soft         electrons   1748.68570817402     
 total        electrons   60.9267466102097     
 translations:           0           1           0
  25 F= -.36328978E+04 E0= -.36328978E+04  d E =-.949740E-02  mag=    61.0000
 curvature:  -0.71 expect dE=-0.139E-01 dE for cont linesearch -0.766E-04
 trial: gam= 0.41433 g(F)=  0.195E-01 g(S)=  0.000E+00 ort = 0.347E-02 (trialstep = 0.332E+00)
 search vector abs. value=  0.416E-01
 bond charge predicted
       N       E                     dE             d eps       ncg     rms          rms(c)
DAV:   1    -0.359526645698E+04   -0.27397E-02   -0.37095E-01  5760   0.641E-01    0.254E-01
DAV:   2    -0.359526828816E+04   -0.18312E-02   -0.18978E-02  6016   0.101E-01    0.128E-01
DAV:   3    -0.359526826492E+04    0.23247E-04   -0.57133E-04  6272   0.205E-02    0.705E-02
DAV:   4    -0.359526823693E+04    0.27989E-04   -0.80233E-05  6400   0.811E-03    0.469E-02
DAV:   5    -0.359526822292E+04    0.14012E-04   -0.34726E-05  6016   0.664E-03    0.150E-02
DAV:   6    -0.359526822387E+04   -0.95485E-06   -0.12490E-05  6272   0.305E-03    0.456E-03
DAV:   7    -0.359526822364E+04    0.23383E-06   -0.65640E-07  4864   0.840E-04
 augmentation electrons   1805.25604950296     
 soft         electrons  0.000000000000000E+000
 total        electrons   1805.25604950296     
 augmentation electrons -7.287045703833313E-002
 soft         electrons  0.000000000000000E+000
 total        electrons -7.287045703833313E-002
 augmentation electrons   2430.94607008377     
 soft         electrons  0.000000000000000E+000
 total        electrons   2430.94607008377     
 augmentation electrons   2374.32303814177     
 soft         electrons  0.000000000000000E+000
 total        electrons   2374.32303814177     
 augmentation electrons   56.5681103337473     
 soft         electrons   1748.68789094493     
 total        electrons   1805.25600127868     
 augmentation electrons   38.2144783929233     
 soft         electrons   1748.68789094493     
 total        electrons   60.9271034989384     
 translations:           0           1           0
  26 F= -.36329024E+04 E0= -.36329024E+04  d E =-.460414E-02  mag=    61.0000
 trial-energy change:   -0.004604  1 .order   -0.004288   -0.006937   -0.001639
 step:   0.4035(harm=  0.4346)  dis= 0.00505  next Energy= -3632.902571 (dE=-0.478E-02)
 bond charge predicted
       N       E                     dE             d eps       ncg     rms          rms(c)
DAV:   1    -0.359526842834E+04   -0.20447E-03   -0.17200E-02  6016   0.138E-01    0.578E-02
DAV:   2    -0.359526852283E+04   -0.94489E-04   -0.98971E-04  6016   0.226E-02    0.286E-02
DAV:   3    -0.359526852213E+04    0.70099E-06   -0.30945E-05  6272   0.466E-03    0.158E-02
DAV:   4    -0.359526852074E+04    0.13912E-05   -0.41710E-06  6528   0.184E-03    0.106E-02
DAV:   5    -0.359526852002E+04    0.71876E-06   -0.15994E-06  5632   0.144E-03
 augmentation electrons   1805.25071672101     
 soft         electrons  0.000000000000000E+000
 total        electrons   1805.25071672101     
 augmentation electrons -7.280417857694853E-002
 soft         electrons  0.000000000000000E+000
 total        electrons -7.280417857694853E-002
 augmentation electrons   2428.93204713146     
 soft         electrons  0.000000000000000E+000
 total        electrons   2428.93204713146     
 augmentation electrons   2372.30901518946     
 soft         electrons  0.000000000000000E+000
 total        electrons   2372.30901518946     
 augmentation electrons   56.5622607746882     
 soft         electrons   1748.68840806377     
 total        electrons   1805.25066883846     
 augmentation electrons   38.2144630482164     
 soft         electrons   1748.68840806377     
 total        electrons   60.9271698096331     
 translations:           0           1           0
  27 F= -.36329027E+04 E0= -.36329027E+04  d E =-.492089E-02  mag=    61.0000
 curvature:  -0.39 expect dE=-0.354E-02 dE for cont linesearch -0.266E-04
 trial: gam= 0.48415 g(F)=  0.900E-02 g(S)=  0.000E+00 ort = 0.168E-02 (trialstep = 0.346E+00)
 search vector abs. value=  0.204E-01
 bond charge predicted
       N       E                     dE             d eps       ncg     rms          rms(c)
DAV:   1    -0.359526969617E+04   -0.11754E-02   -0.17777E-01  5888   0.474E-01    0.227E-01
DAV:   2    -0.359527119135E+04   -0.14952E-02   -0.14197E-02  5760   0.763E-02    0.106E-01
DAV:   3    -0.359527122725E+04   -0.35902E-04   -0.43706E-04  6144   0.154E-02    0.531E-02
DAV:   4    -0.359527121777E+04    0.94774E-05   -0.38475E-05  6784   0.496E-03    0.383E-02
DAV:   5    -0.359527120842E+04    0.93480E-05   -0.16131E-05  5760   0.514E-03    0.147E-02
DAV:   6    -0.359527120850E+04   -0.82597E-07   -0.77551E-06  6400   0.246E-03
 augmentation electrons   1805.22856150570     
 soft         electrons  0.000000000000000E+000
 total        electrons   1805.22856150570     
 augmentation electrons -7.242351529752701E-002
 soft         electrons  0.000000000000000E+000
 total        electrons -7.242351529752701E-002
 augmentation electrons   2418.14334537625     
 soft         electrons  0.000000000000000E+000
 total        electrons   2418.14334537625     
 augmentation electrons   2361.52031343425     
 soft         electrons  0.000000000000000E+000
 total        electrons   2361.52031343425     
 augmentation electrons   56.5382293565142     
 soft         electrons   1748.69028488919     
 total        electrons   1805.22851424570     
 augmentation electrons   38.2151991316751     
 soft         electrons   1748.69028488919     
 total        electrons   60.9275505165331     
 translations:           0           1           0
  28 F= -.36329059E+04 E0= -.36329059E+04  d E =-.315048E-02  mag=    61.0000
 trial-energy change:   -0.003150  1 .order   -0.002525   -0.003396   -0.001653
 step:   0.4349(harm=  0.6746)  dis= 0.00341  next Energy= -3632.906080 (dE=-0.337E-02)
 bond charge predicted
       N       E                     dE             d eps       ncg     rms          rms(c)
DAV:   1    -0.359527153048E+04   -0.32206E-03   -0.11768E-02  6016   0.121E-01    0.586E-02
DAV:   2    -0.359527162860E+04   -0.98120E-04   -0.93619E-04  5760   0.197E-02    0.275E-02
DAV:   3    -0.359527163050E+04   -0.19030E-05   -0.28378E-05  6144   0.394E-03    0.138E-02
DAV:   4    -0.359527162971E+04    0.79301E-06   -0.26025E-06  6144   0.130E-03
 augmentation electrons   1805.22245579669     
 soft         electrons  0.000000000000000E+000
 total        electrons   1805.22245579669     
 augmentation electrons -7.242507349157294E-002
 soft         electrons  0.000000000000000E+000
 total        electrons -7.242507349157294E-002
 augmentation electrons   2414.11906910757     
 soft         electrons  0.000000000000000E+000
 total        electrons   2414.11906910757     
 augmentation electrons   2357.49603716557     
 soft         electrons  0.000000000000000E+000
 total        electrons   2357.49603716557     
 augmentation electrons   56.5315834135639     
 soft         electrons   1748.69082528832     
 total        electrons   1805.22240870188     
 augmentation electrons   38.2152949859526     
 soft         electrons   1748.69082528832     
 total        electrons   60.9275489732856     
 translations:           0           1           0
  29 F= -.36329064E+04 E0= -.36329064E+04  d E =-.370887E-02  mag=    61.0000
 curvature:  -0.33 expect dE=-0.196E-02 dE for cont linesearch -0.209E-03
 ZBRENT: increasing intervall
 opt :   0.6121  next Energy= -3632.906850 (dE=-0.414E-02)
 bond charge predicted
       N       E                     dE             d eps       ncg     rms          rms(c)
DAV:   1    -0.359527173000E+04   -0.99500E-04   -0.46029E-02  6016   0.242E-01    0.115E-01
DAV:   2    -0.359527211836E+04   -0.38835E-03   -0.36891E-03  5760   0.387E-02    0.536E-02
DAV:   3    -0.359527212862E+04   -0.10266E-04   -0.11241E-04  6144   0.767E-03    0.271E-02
DAV:   4    -0.359527212647E+04    0.21562E-05   -0.93781E-06  6656   0.239E-03    0.198E-02
DAV:   5    -0.359527212405E+04    0.24140E-05   -0.39171E-06  5888   0.256E-03    0.736E-03
DAV:   6    -0.359527212401E+04    0.42535E-07   -0.17304E-06  5504   0.117E-03
 augmentation electrons   1805.20927434678     
 soft         electrons  0.000000000000000E+000
 total        electrons   1805.20927434678     
 augmentation electrons -7.266720127160595E-002
 soft         electrons  0.000000000000000E+000
 total        electrons -7.266720127160595E-002
 augmentation electrons   2403.08381545025     
 soft         electrons  0.000000000000000E+000
 total        electrons   2403.08381545025     
 augmentation electrons   2346.46078350825     
 soft         electrons  0.000000000000000E+000
 total        electrons   2346.46078350825     
 augmentation electrons   56.5174545533810     
 soft         electrons   1748.69177303555     
 total        electrons   1805.20922758893     
 augmentation electrons   38.2152237173612     
 soft         electrons   1748.69177303555     
 total        electrons   60.9273068797342     
 translations:           0           1           0
  30 F= -.36329071E+04 E0= -.36329071E+04  d E =-.442072E-02  mag=    61.0000
 curvature:  -0.68 expect dE=-0.677E-02 dE for cont linesearch -0.414E-04
 trial: gam= 1.04827 g(F)=  0.998E-02 g(S)=  0.000E+00 ort = 0.112E-02 (trialstep = 0.234E+00)
 search vector abs. value=  0.347E-01
 bond charge predicted
       N       E                     dE             d eps       ncg     rms          rms(c)
DAV:   1    -0.359527309601E+04   -0.97195E-03   -0.13559E-01  5632   0.402E-01    0.209E-01
DAV:   2    -0.359527437204E+04   -0.12760E-02   -0.11783E-02  5760   0.649E-02    0.957E-02
DAV:   3    -0.359527440961E+04   -0.37575E-04   -0.34585E-04  6144   0.126E-02    0.471E-02
DAV:   4    -0.359527440368E+04    0.59323E-05   -0.27942E-05  6528   0.374E-03    0.349E-02
DAV:   5    -0.359527439609E+04    0.75863E-05   -0.13231E-05  5888   0.451E-03    0.138E-02
DAV:   6    -0.359527439618E+04   -0.91473E-07   -0.64233E-06  6400   0.217E-03
 augmentation electrons   1805.18715275638     
 soft         electrons  0.000000000000000E+000
 total        electrons   1805.18715275638     
 augmentation electrons -7.319164948152709E-002
 soft         electrons  0.000000000000000E+000
 total        electrons -7.319164948152709E-002
 augmentation electrons   2381.56031975160     
 soft         electrons  0.000000000000000E+000
 total        electrons   2381.56031975160     
 augmentation electrons   2324.93728780960     
 soft         electrons  0.000000000000000E+000
 total        electrons   2324.93728780960     
 augmentation electrons   56.4942226935314     
 soft         electrons   1748.69288387534     
 total        electrons   1805.18710656887     
 augmentation electrons   38.2151807415363     
 soft         electrons   1748.69288387534     
 total        electrons   60.9267825229160     
 translations:           0           1           0
  31 F= -.36329099E+04 E0= -.36329099E+04  d E =-.275278E-02  mag=    61.0000
 trial-energy change:   -0.002753  1 .order   -0.002178   -0.002615   -0.001740
 step:   0.7013(harm=  0.7013)  dis= 0.00719  next Energy= -3632.911038 (dE=-0.391E-02)
 bond charge predicted
       N       E                     dE             d eps       ncg     rms          rms(c)
DAV:   1    -0.359527111297E+04    0.32831E-02   -0.53762E-01  5632   0.800E-01    0.415E-01
DAV:   2    -0.359527617738E+04   -0.50644E-02   -0.46754E-02  5888   0.129E-01    0.191E-01
DAV:   3    -0.359527632804E+04   -0.15066E-03   -0.13711E-03  6144   0.251E-02    0.938E-02
DAV:   4    -0.359527630506E+04    0.22980E-04   -0.11088E-04  6528   0.746E-03    0.695E-02
DAV:   5    -0.359527627640E+04    0.28664E-04   -0.52553E-05  5888   0.898E-03    0.275E-02
DAV:   6    -0.359527627725E+04   -0.84819E-06   -0.25385E-05  6400   0.432E-03    0.629E-03
DAV:   7    -0.359527627706E+04    0.18260E-06   -0.25942E-06  6144   0.157E-03
 augmentation electrons   1805.14526654957     
 soft         electrons  0.000000000000000E+000
 total        electrons   1805.14526654957     
 augmentation electrons -7.402045890758430E-002
 soft         electrons  0.000000000000000E+000
 total        electrons -7.402045890758430E-002
 augmentation electrons   2339.58405517086     
 soft         electrons  0.000000000000000E+000
 total        electrons   2339.58405517086     
 augmentation electrons   2282.96102322886     
 soft         electrons  0.000000000000000E+000
 total        electrons   2282.96102322886     
 augmentation electrons   56.4501315329734     
 soft         electrons   1748.69509002204     
 total        electrons   1805.14522155502     
 augmentation electrons   38.2153139948584     
 soft         electrons   1748.69509002204     
 total        electrons   60.9259539376033     
 translations:           0           1           0
  32 F= -.36329127E+04 E0= -.36329127E+04  d E =-.558848E-02  mag=    61.0000
 curvature:  -1.09 expect dE=-0.134E-01 dE for cont linesearch -0.873E-07
 trial: gam= 1.31765 g(F)=  0.122E-01 g(S)=  0.000E+00 ort =-0.527E-04 (trialstep = 0.157E+00)
 search vector abs. value=  0.724E-01
 bond charge predicted
       N       E                     dE             d eps       ncg     rms          rms(c)
DAV:   1    -0.359527670166E+04   -0.42441E-03   -0.12674E-01  6016   0.376E-01    0.199E-01
DAV:   2    -0.359527787716E+04   -0.11755E-02   -0.10795E-02  5760   0.601E-02    0.912E-02
DAV:   3    -0.359527791443E+04   -0.37269E-04   -0.31425E-04  6144   0.115E-02    0.445E-02
DAV:   4    -0.359527790994E+04    0.44883E-05   -0.24518E-05  6656   0.332E-03    0.332E-02
DAV:   5    -0.359527790398E+04    0.59585E-05   -0.12013E-05  5760   0.403E-03    0.133E-02
DAV:   6    -0.359527790422E+04   -0.23915E-06   -0.52689E-06  6528   0.188E-03
 augmentation electrons   1805.12817359494     
 soft         electrons  0.000000000000000E+000
 total        electrons   1805.12817359494     
 augmentation electrons -7.438665088736256E-002
 soft         electrons  0.000000000000000E+000
 total        electrons -7.438665088736256E-002
 augmentation electrons   2322.91741776159     
 soft         electrons  0.000000000000000E+000
 total        electrons   2322.91741776159     
 augmentation electrons   2266.29438581959     
 soft         electrons  0.000000000000000E+000
 total        electrons   2266.29438581959     
 augmentation electrons   56.4325725892835     
 soft         electrons   1748.69555680013     
 total        electrons   1805.12812938941     
 augmentation electrons   38.2154278856106     
 soft         electrons   1748.69555680013     
 total        electrons   60.9255879284142     
 translations:           0           1           0
  33 F= -.36329146E+04 E0= -.36329146E+04  d E =-.185776E-02  mag=    61.0000
 ZBRENT: can't locate minimum, use default step
 trial-energy change:   -0.001858  1 .order   -0.001696   -0.001915   -0.001477
 step:   0.6290(harm=  0.6873)  dis= 0.00927  next Energy= -3632.916901 (dE=-0.418E-02)
 bond charge predicted
       N       E                     dE             d eps       ncg     rms          rms(c)
DAV:   1    -0.359526937055E+04    0.85334E-02   -0.11405E+00  5760   0.113E+00    0.598E-01
DAV:   2    -0.359527993417E+04   -0.10564E-01   -0.97000E-02  5760   0.180E-01    0.273E-01
DAV:   3    -0.359528027375E+04   -0.33958E-03   -0.28283E-03  6144   0.344E-02    0.133E-01
DAV:   4    -0.359528023442E+04    0.39329E-04   -0.22176E-04  6656   0.101E-02    0.995E-02
DAV:   5    -0.359528018280E+04    0.51621E-04   -0.10346E-04  5760   0.123E-02    0.402E-02
DAV:   6    -0.359528018519E+04   -0.23879E-05   -0.48906E-05  6528   0.600E-03    0.896E-03
DAV:   7    -0.359528018475E+04    0.43972E-06   -0.53283E-06  6144   0.225E-03
 augmentation electrons   1805.08054858575     
 soft         electrons  0.000000000000000E+000
 total        electrons   1805.08054858575     
 augmentation electrons -7.510038782333564E-002
 soft         electrons  0.000000000000000E+000
 total        electrons -7.510038782333564E-002
 augmentation electrons   2275.56961292196     
 soft         electrons  0.000000000000000E+000
 total        electrons   2275.56961292196     
 augmentation electrons   2218.94658097996     
 soft         electrons  0.000000000000000E+000
 total        electrons   2218.94658097996     
 augmentation electrons   56.3835295867116     
 soft         electrons   1748.69697696961     
 total        electrons   1805.08050655632     
 augmentation electrons   38.2161640139478     
 soft         electrons   1748.69697696961     
 total        electrons   60.9248747295907     
 translations:           0           1           0
  34 F= -.36329176E+04 E0= -.36329176E+04  d E =-.486148E-02  mag=    61.0000
 curvature:  -2.02 expect dE=-0.209E-01 dE for cont linesearch -0.219E-04
 trial: gam= 0.68153 g(F)=  0.104E-01 g(S)=  0.000E+00 ort = 0.886E-03 (trialstep = 0.252E+00)
 search vector abs. value=  0.452E-01
 bond charge predicted
       N       E                     dE             d eps       ncg     rms          rms(c)
DAV:   1    -0.359528037232E+04   -0.18713E-03   -0.20408E-01  5760   0.463E-01    0.235E-01
DAV:   2    -0.359528201827E+04   -0.16460E-02   -0.15420E-02  5760   0.717E-02    0.110E-01
DAV:   3    -0.359528206691E+04   -0.48638E-04   -0.45253E-04  6144   0.138E-02    0.547E-02
DAV:   4    -0.359528205797E+04    0.89477E-05   -0.38024E-05  6528   0.443E-03    0.395E-02
DAV:   5    -0.359528205025E+04    0.77124E-05   -0.20280E-05  6016   0.502E-03    0.142E-02
DAV:   6    -0.359528205107E+04   -0.81358E-06   -0.67931E-06  6400   0.201E-03
 augmentation electrons   1805.06566185793     
 soft         electrons  0.000000000000000E+000
 total        electrons   1805.06566185793     
 augmentation electrons -7.517285885429298E-002
 soft         electrons  0.000000000000000E+000
 total        electrons -7.517285885429298E-002
 augmentation electrons   2263.20000728247     
 soft         electrons  0.000000000000000E+000
 total        electrons   2263.20000728247     
 augmentation electrons   2206.57697534047     
 soft         electrons  0.000000000000000E+000
 total        electrons   2206.57697534047     
 augmentation electrons   56.3696493787781     
 soft         electrons   1748.69597163137     
 total        electrons   1805.06562101015     
 augmentation electrons   38.2164626922156     
 soft         electrons   1748.69597163137     
 total        electrons   60.9248025754853     
 translations:           0           1           0
  35 F= -.36329194E+04 E0= -.36329194E+04  d E =-.186887E-02  mag=    61.0000
 trial-energy change:   -0.001869  1 .order   -0.002205   -0.002757   -0.001652
 step:   0.6279(harm=  0.6279)  dis= 0.00715  next Energy= -3632.921019 (dE=-0.344E-02)
 bond charge predicted
       N       E                     dE             d eps       ncg     rms          rms(c)
DAV:   1    -0.359527911956E+04    0.29307E-02   -0.45647E-01  5632   0.693E-01    0.351E-01
DAV:   2    -0.359528278974E+04   -0.36702E-02   -0.34378E-02  5760   0.107E-01    0.163E-01
DAV:   3    -0.359528289794E+04   -0.10820E-03   -0.10090E-03  6144   0.205E-02    0.815E-02
DAV:   4    -0.359528287788E+04    0.20058E-04   -0.84700E-05  6528   0.661E-03    0.590E-02
DAV:   5    -0.359528286037E+04    0.17517E-04   -0.44655E-05  5888   0.759E-03    0.212E-02
DAV:   6    -0.359528286207E+04   -0.17058E-05   -0.15565E-05  6400   0.314E-03    0.474E-03
DAV:   7    -0.359528286186E+04    0.21435E-06   -0.92323E-07  5248   0.106E-03
 augmentation electrons   1805.04367471724     
 soft         electrons  0.000000000000000E+000
 total        electrons   1805.04367471724     
 augmentation electrons -7.517751887068494E-002
 soft         electrons  0.000000000000000E+000
 total        electrons -7.517751887068494E-002
 augmentation electrons   2245.25229753040     
 soft         electrons  0.000000000000000E+000
 total        electrons   2245.25229753040     
 augmentation electrons   2188.62926558840     
 soft         electrons  0.000000000000000E+000
 total        electrons   2188.62926558840     
 augmentation electrons   56.3491840999159     
 soft         electrons   1748.69445121969     
 total        electrons   1805.04363531960     
 augmentation electrons   38.2170120446317     
 soft         electrons   1748.69445121969     
 total        electrons   60.9247982984411     
 translations:           0           1           0
  36 F= -.36329203E+04 E0= -.36329203E+04  d E =-.269351E-02  mag=    61.0000
 curvature:  -1.29 expect dE=-0.185E-01 dE for cont linesearch -0.122E-04
 trial: gam= 1.41718 g(F)=  0.143E-01 g(S)=  0.000E+00 ort = 0.653E-03 (trialstep = 0.138E+00)
 search vector abs. value=  0.107E+00
 bond charge predicted
       N       E                     dE             d eps       ncg     rms          rms(c)
DAV:   1    -0.359528329400E+04   -0.43192E-03   -0.14225E-01  5760   0.403E-01    0.201E-01
DAV:   2    -0.359528451927E+04   -0.12253E-02   -0.11272E-02  5760   0.609E-02    0.929E-02
DAV:   3    -0.359528455384E+04   -0.34563E-04   -0.25454E-04  6016   0.109E-02    0.450E-02
DAV:   4    -0.359528454854E+04    0.52942E-05   -0.22164E-05  6400   0.354E-03    0.325E-02
DAV:   5    -0.359528454412E+04    0.44227E-05   -0.12751E-05  6016   0.406E-03    0.125E-02
DAV:   6    -0.359528454476E+04   -0.63913E-06   -0.41634E-06  6144   0.159E-03
 augmentation electrons   1805.03245949316     
 soft         electrons  0.000000000000000E+000
 total        electrons   1805.03245949316     
 augmentation electrons -7.510723421224327E-002
 soft         electrons  0.000000000000000E+000
 total        electrons -7.510723421224327E-002
 augmentation electrons   2238.10238792105     
 soft         electrons  0.000000000000000E+000
 total        electrons   2238.10238792105     
 augmentation electrons   2181.47935597905     
 soft         electrons  0.000000000000000E+000
 total        electrons   2181.47935597905     
 augmentation electrons   56.3392019225151     
 soft         electrons   1748.69321900569     
 total        electrons   1805.03242092820     
 augmentation electrons   38.2172325448050     
 soft         electrons   1748.69321900569     
 total        electrons   60.9248688009407     
 translations:           0           1           0
  37 F= -.36329219E+04 E0= -.36329219E+04  d E =-.158242E-02  mag=    61.0000
 ZBRENT: can't locate minimum, use default step
 trial-energy change:   -0.001582  1 .order   -0.001899   -0.002101   -0.001696
 step:   0.5528(harm=  0.7176)  dis= 0.00999  next Energy= -3632.925727 (dE=-0.546E-02)
 bond charge predicted
       N       E                     dE             d eps       ncg     rms          rms(c)
DAV:   1    -0.359527561811E+04    0.89260E-02   -0.12796E+00  5760   0.121E+00    0.602E-01
DAV:   2    -0.359528655602E+04   -0.10938E-01   -0.10064E-01  5632   0.182E-01    0.276E-01
DAV:   3    -0.359528693572E+04   -0.37970E-03   -0.29596E-03  6144   0.350E-02    0.134E-01
DAV:   4    -0.359528689283E+04    0.42893E-04   -0.23725E-04  6528   0.108E-02    0.985E-02
DAV:   5    -0.359528685075E+04    0.42075E-04   -0.10839E-04  6016   0.121E-02    0.368E-02
DAV:   6    -0.359528685554E+04   -0.47905E-05   -0.39049E-05  6400   0.500E-03    0.786E-03
DAV:   7    -0.359528685501E+04    0.53270E-06   -0.26944E-06  5888   0.183E-03
 augmentation electrons   1804.99916686134     
 soft         electrons  0.000000000000000E+000
 total        electrons   1804.99916686134     
 augmentation electrons -7.491806805404425E-002
 soft         electrons  0.000000000000000E+000
 total        electrons -7.491806805404425E-002
 augmentation electrons   2217.52354006125     
 soft         electrons  0.000000000000000E+000
 total        electrons   2217.52354006125     
 augmentation electrons   2160.90050811925     
 soft         electrons  0.000000000000000E+000
 total        electrons   2160.90050811925     
 augmentation electrons   56.3095897398111     
 soft         electrons   1748.68954021496     
 total        electrons   1804.99912995478     
 augmentation electrons   38.2178619657439     
 soft         electrons   1748.68954021496     
 total        electrons   60.9250583550959     
 translations:           0           1           0
  38 F= -.36329239E+04 E0= -.36329239E+04  d E =-.359276E-02  mag=    61.0000
 curvature:  -2.32 expect dE=-0.223E-01 dE for cont linesearch -0.150E-03
 ZBRENT: extrapolating
 opt :   0.6657  next Energy= -3632.924013 (dE=-0.374E-02)
 bond charge predicted
       N       E                     dE             d eps       ncg     rms          rms(c)
DAV:   1    -0.359528602127E+04    0.83427E-03   -0.95297E-02  6016   0.329E-01    0.164E-01
DAV:   2    -0.359528683719E+04   -0.81592E-03   -0.75048E-03  5632   0.501E-02    0.756E-02
DAV:   3    -0.359528686491E+04   -0.27721E-04   -0.22109E-04  6144   0.968E-03    0.367E-02
DAV:   4    -0.359528686157E+04    0.33467E-05   -0.18211E-05  6528   0.305E-03    0.268E-02
DAV:   5    -0.359528685855E+04    0.30182E-05   -0.84363E-06  6016   0.334E-03    0.100E-02
DAV:   6    -0.359528685901E+04   -0.46271E-06   -0.29338E-06  5888   0.133E-03
 augmentation electrons   1804.99007170408     
 soft         electrons  0.000000000000000E+000
 total        electrons   1804.99007170408     
 augmentation electrons -7.486747715009859E-002
 soft         electrons  0.000000000000000E+000
 total        electrons -7.486747715009859E-002
 augmentation electrons   2211.72943524999     
 soft         electrons  0.000000000000000E+000
 total        electrons   2211.72943524999     
 augmentation electrons   2155.10640330799     
 soft         electrons  0.000000000000000E+000
 total        electrons   2155.10640330799     
 augmentation electrons   56.3015201939634     
 soft         electrons   1748.68851483366     
 total        electrons   1804.99003502763     
 augmentation electrons   38.2180421338644     
 soft         electrons   1748.68851483366     
 total        electrons   60.9251089818443     
 translations:           0           1           0
  39 F= -.36329238E+04 E0= -.36329238E+04  d E =-.350927E-02  mag=    61.0000
 curvature:  -2.30 expect dE=-0.293E-01 dE for cont linesearch -0.566E-05
 trial: gam= 0.84127 g(F)=  0.127E-01 g(S)=  0.000E+00 ort = 0.513E-03 (trialstep = 0.244E+00)
 search vector abs. value=  0.892E-01
 bond charge predicted
       N       E                     dE             d eps       ncg     rms          rms(c)
DAV:   1    -0.359528562398E+04    0.12346E-02   -0.38262E-01  5888   0.681E-01    0.338E-01
[...]
 soft         electrons  0.000000000000000E+000
 total        electrons   1932.19697564259     
 augmentation electrons   1875.57394370059     
 soft         electrons  0.000000000000000E+000
 total        electrons   1875.57394370059     
 augmentation electrons   56.2011821609598     
 soft         electrons   1748.69110105151     
 total        electrons   1804.89228321247     
 augmentation electrons   38.2169987148756     
 soft         electrons   1748.69110105151     
 total        electrons   60.9218642380770     
 translations:           0           1           0
 124 F= -.36330107E+04 E0= -.36330107E+04  d E =-.117897E-02  mag=    61.0000
 curvature:  -0.38 expect dE=-0.784E-03 dE for cont linesearch -0.572E-04
 ZBRENT: increasing intervall
 opt :   0.3671  next Energy= -3633.010836 (dE=-0.129E-02)
 bond charge predicted
       N       E                     dE             d eps       ncg     rms          rms(c)
DAV:   1    -0.359536085855E+04   -0.67649E-04   -0.14898E-02  5504   0.143E-01    0.491E-02
DAV:   2    -0.359536092522E+04   -0.66678E-04   -0.67957E-04  5888   0.206E-02    0.254E-02
DAV:   3    -0.359536092606E+04   -0.83874E-06   -0.22716E-05  6272   0.414E-03    0.146E-02
DAV:   4    -0.359536092489E+04    0.11735E-05   -0.29435E-06  6144   0.179E-03    0.797E-03
DAV:   5    -0.359536092472E+04    0.16556E-06   -0.10586E-06  4736   0.119E-03
 augmentation electrons   1804.89215981040     
 soft         electrons  0.000000000000000E+000
 total        electrons   1804.89215981040     
 augmentation electrons -7.808782147820520E-002
 soft         electrons  0.000000000000000E+000
 total        electrons -7.808782147820520E-002
 augmentation electrons   1932.22162657007     
 soft         electrons  0.000000000000000E+000
 total        electrons   1932.22162657007     
 augmentation electrons   1875.59859462807     
 soft         electrons  0.000000000000000E+000
 total        electrons   1875.59859462807     
 augmentation electrons   56.2008266230274     
 soft         electrons   1748.69127902372     
 total        electrons   1804.89210564675     
 augmentation electrons   38.2170465033035     
 soft         electrons   1748.69127902372     
 total        electrons   60.9218881698901     
 translations:           0           1           0
 125 F= -.36330109E+04 E0= -.36330109E+04  d E =-.137227E-02  mag=    61.0000
 curvature:  -0.77 expect dE=-0.222E-02 dE for cont linesearch -0.281E-05
 trial: gam= 0.47606 g(F)=  0.288E-02 g(S)=  0.000E+00 ort = 0.278E-03 (trialstep = 0.239E+00)
 search vector abs. value=  0.795E-02
 bond charge predicted
       N       E                     dE             d eps       ncg     rms          rms(c)
DAV:   1    -0.359536135171E+04   -0.42682E-03   -0.28014E-02  5504   0.200E-01    0.672E-02
DAV:   2    -0.359536147067E+04   -0.11896E-03   -0.12362E-03  6272   0.293E-02    0.346E-02
DAV:   3    -0.359536147102E+04   -0.34651E-06   -0.42617E-05  6528   0.608E-03    0.196E-02
DAV:   4    -0.359536146891E+04    0.21068E-05   -0.58167E-06  6528   0.254E-03    0.114E-02
DAV:   5    -0.359536146842E+04    0.49057E-06   -0.19730E-06  5376   0.169E-03
 augmentation electrons   1804.89165208867     
 soft         electrons  0.000000000000000E+000
 total        electrons   1804.89165208867     
 augmentation electrons -7.802587617659640E-002
 soft         electrons  0.000000000000000E+000
 total        electrons -7.802587617659640E-002
 augmentation electrons   1932.29752179707     
 soft         electrons  0.000000000000000E+000
 total        electrons   1932.29752179707     
 augmentation electrons   1875.67448985507     
 soft         electrons  0.000000000000000E+000
 total        electrons   1875.67448985507     
 augmentation electrons   56.2002132668189     
 soft         electrons   1748.69138447135     
 total        electrons   1804.89159773817     
 augmentation electrons   38.2171554921993     
 soft         electrons   1748.69138447135     
 total        electrons   60.9219500478544     
 translations:           0           1           0
 126 F= -.36330116E+04 E0= -.36330116E+04  d E =-.666221E-03  mag=    61.0000
 trial-energy change:   -0.000666  1 .order   -0.000563   -0.000719   -0.000407
 step:   0.3233(harm=  0.5509)  dis= 0.00048  next Energy= -3633.011657 (dE=-0.743E-03)
 bond charge predicted
       N       E                     dE             d eps       ncg     rms          rms(c)
DAV:   1    -0.359536157190E+04   -0.10299E-03   -0.35131E-03  6016   0.709E-02    0.238E-02
DAV:   2    -0.359536158670E+04   -0.14807E-04   -0.15553E-04  6272   0.104E-02    0.122E-02
DAV:   3    -0.359536158668E+04    0.27459E-07   -0.53900E-06  6400   0.218E-03
 augmentation electrons   1804.89145079864     
 soft         electrons  0.000000000000000E+000
 total        electrons   1804.89145079864     
 augmentation electrons -7.803249263584616E-002
 soft         electrons  0.000000000000000E+000
 total        electrons -7.803249263584616E-002
 augmentation electrons   1932.32596200243     
 soft         electrons  0.000000000000000E+000
 total        electrons   1932.32596200243     
 augmentation electrons   1875.70293006043     
 soft         electrons  0.000000000000000E+000
 total        electrons   1875.70293006043     
 augmentation electrons   56.1999728258370     
 soft         electrons   1748.69142355604     
 total        electrons   1804.89139638188     
 augmentation electrons   38.2171653028785     
 soft         electrons   1748.69142355604     
 total        electrons   60.9219434076018     
 translations:           0           1           0
 127 F= -.36330117E+04 E0= -.36330117E+04  d E =-.832072E-03  mag=    61.0000
 curvature:  -0.34 expect dE=-0.518E-03 dE for cont linesearch -0.688E-04
 ZBRENT: increasing intervall
 opt :   0.4921  next Energy= -3633.011886 (dE=-0.972E-03)
 bond charge predicted
       N       E                     dE             d eps       ncg     rms          rms(c)
DAV:   1    -0.359536164547E+04   -0.58767E-04   -0.13759E-02  5504   0.141E-01    0.463E-02
DAV:   2    -0.359536170457E+04   -0.59102E-04   -0.60433E-04  6272   0.203E-02    0.239E-02
DAV:   3    -0.359536170533E+04   -0.75458E-06   -0.20723E-05  6528   0.415E-03    0.138E-02
DAV:   4    -0.359536170442E+04    0.90495E-06   -0.24980E-06  6016   0.168E-03
 augmentation electrons   1804.89107225603     
 soft         electrons  0.000000000000000E+000
 total        electrons   1804.89107225603     
 augmentation electrons -7.805987906124154E-002
 soft         electrons  0.000000000000000E+000
 total        electrons -7.805987906124154E-002
 augmentation electrons   1932.38521832716     
 soft         electrons  0.000000000000000E+000
 total        electrons   1932.38521832716     
 augmentation electrons   1875.76218638516     
 soft         electrons  0.000000000000000E+000
 total        electrons   1875.76218638516     
 augmentation electrons   56.1995306182879     
 soft         electrons   1748.69148708837     
 total        electrons   1804.89101770666     
 augmentation electrons   38.2171717439090     
 soft         electrons   1748.69148708837     
 total        electrons   60.9219159736186     
 translations:           0           1           0
 128 F= -.36330120E+04 E0= -.36330120E+04  d E =-.103612E-02  mag=    61.0000
 curvature:  -0.69 expect dE=-0.174E-02 dE for cont linesearch -0.760E-05
 trial: gam= 0.83202 g(F)=  0.251E-02 g(S)=  0.000E+00 ort = 0.295E-03 (trialstep = 0.271E+00)
 search vector abs. value=  0.850E-02
 bond charge predicted
       N       E                     dE             d eps       ncg     rms          rms(c)
DAV:   1    -0.359536198083E+04   -0.27551E-03   -0.38995E-02  5376   0.243E-01    0.844E-02
DAV:   2    -0.359536218133E+04   -0.20050E-03   -0.19999E-03  6144   0.354E-02    0.421E-02
DAV:   3    -0.359536218461E+04   -0.32829E-05   -0.63118E-05  6144   0.710E-03    0.234E-02
DAV:   4    -0.359536218218E+04    0.24302E-05   -0.69040E-06  6784   0.267E-03    0.147E-02
DAV:   5    -0.359536218134E+04    0.84749E-06   -0.31346E-06  5760   0.223E-03
 augmentation electrons   1804.89044941606     
 soft         electrons  0.000000000000000E+000
 total        electrons   1804.89044941606     
 augmentation electrons -7.808775752281316E-002
 soft         electrons  0.000000000000000E+000
 total        electrons -7.808775752281316E-002
 augmentation electrons   1932.38165255727     
 soft         electrons  0.000000000000000E+000
 total        electrons   1932.38165255727     
 augmentation electrons   1875.75862061527     
 soft         electrons  0.000000000000000E+000
 total        electrons   1875.75862061527     
 augmentation electrons   56.1989481047900     
 soft         electrons   1748.69144647515     
 total        electrons   1804.89039457994     
 augmentation electrons   38.2172439605137     
 soft         electrons   1748.69144647515     
 total        electrons   60.9218880150175     
 translations:           0           1           0
 129 F= -.36330125E+04 E0= -.36330125E+04  d E =-.574911E-03  mag=    61.0000
 trial-energy change:   -0.000575  1 .order   -0.000551   -0.000745   -0.000357
 step:   0.4285(harm=  0.5203)  dis= 0.00083  next Energy= -3633.012634 (dE=-0.684E-03)
 bond charge predicted
       N       E                     dE             d eps       ncg     rms          rms(c)
DAV:   1    -0.359536221408E+04   -0.31897E-04   -0.13316E-02  5376   0.141E-01    0.494E-02
DAV:   2    -0.359536228211E+04   -0.68031E-04   -0.67993E-04  6144   0.207E-02    0.245E-02
DAV:   3    -0.359536228301E+04   -0.89558E-06   -0.21346E-05  6144   0.417E-03    0.137E-02
DAV:   4    -0.359536228210E+04    0.91019E-06   -0.24358E-06  6144   0.161E-03
 augmentation electrons   1804.89019329296     
 soft         electrons  0.000000000000000E+000
 total        electrons   1804.89019329296     
 augmentation electrons -7.803695428894129E-002
 soft         electrons  0.000000000000000E+000
 total        electrons -7.803695428894129E-002
 augmentation electrons   1932.38684458544     
 soft         electrons  0.000000000000000E+000
 total        electrons   1932.38684458544     
 augmentation electrons   1875.76381264344     
 soft         electrons  0.000000000000000E+000
 total        electrons   1875.76381264344     
 augmentation electrons   56.1987193908130     
 soft         electrons   1748.69141889998     
 total        electrons   1804.89013829079     
 augmentation electrons   38.2173553300072     
 soft         electrons   1748.69141889998     
 total        electrons   60.9219387719707     
 translations:           0           1           0
 130 F= -.36330127E+04 E0= -.36330127E+04  d E =-.738622E-03  mag=    61.0000
 curvature:  -0.69 expect dE=-0.113E-02 dE for cont linesearch -0.252E-04
 ZBRENT: increasing intervall
 opt :   0.7438  next Energy= -3633.012623 (dE=-0.673E-03)
 bond charge predicted
       N       E                     dE             d eps       ncg     rms          rms(c)
DAV:   1    -0.359536184971E+04    0.43330E-03   -0.52670E-02  5376   0.282E-01    0.980E-02
DAV:   2    -0.359536212102E+04   -0.27131E-03   -0.26947E-03  6144   0.410E-02    0.486E-02
DAV:   3    -0.359536212589E+04   -0.48676E-05   -0.84514E-05  6272   0.814E-03    0.271E-02
DAV:   4    -0.359536212287E+04    0.30237E-05   -0.90565E-06  6784   0.303E-03    0.170E-02
DAV:   5    -0.359536212183E+04    0.10408E-05   -0.39800E-06  5760   0.252E-03    0.483E-03
DAV:   6    -0.359536212193E+04   -0.10528E-06   -0.92762E-07  4480   0.961E-04
 augmentation electrons   1804.88963139583     
 soft         electrons  0.000000000000000E+000
 total        electrons   1804.88963139583     
 augmentation electrons -7.801468035136026E-002
 soft         electrons  0.000000000000000E+000
 total        electrons -7.801468035136026E-002
 augmentation electrons   1932.41143534932     
 soft         electrons  0.000000000000000E+000
 total        electrons   1932.41143534932     
 augmentation electrons   1875.78840340732     
 soft         electrons  0.000000000000000E+000
 total        electrons   1875.78840340732     
 augmentation electrons   56.1982004388933     
 soft         electrons   1748.69137562522     
 total        electrons   1804.88957606411     
 augmentation electrons   38.2174881728611     
 soft         electrons   1748.69137562522     
 total        electrons   60.9219609541892     
 translations:           0           1           0
 131 F= -.36330126E+04 E0= -.36330126E+04  d E =-.698803E-03  mag=    61.0000
 curvature:   1.81 expect dE= 0.858E-02 dE for cont linesearch  0.209E-03
 ZBRENT: bracketing found
 ZBRENT: interpolating
 opt :   0.5417  next Energy= -3633.012720 (dE=-0.770E-03)
 bond charge predicted
       N       E                     dE             d eps       ncg     rms          rms(c)
DAV:   1    -0.359536216804E+04   -0.46213E-04   -0.21730E-02  5376   0.181E-01    0.631E-02
DAV:   2    -0.359536227975E+04   -0.11171E-03   -0.11103E-03  6016   0.264E-02    0.314E-02
DAV:   3    -0.359536228176E+04   -0.20125E-05   -0.35458E-05  6272   0.533E-03    0.175E-02
DAV:   4    -0.359536228052E+04    0.12434E-05   -0.37792E-06  6656   0.199E-03    0.110E-02
DAV:   5    -0.359536228020E+04    0.31614E-06   -0.17075E-06  5376   0.169E-03
 augmentation electrons   1804.88999107676     
 soft         electrons  0.000000000000000E+000
 total        electrons   1804.88999107676     
 augmentation electrons -7.801984665691702E-002
 soft         electrons  0.000000000000000E+000
 total        electrons -7.801984665691702E-002
 augmentation electrons   1932.39359101061     
 soft         electrons  0.000000000000000E+000
 total        electrons   1932.39359101061     
 augmentation electrons   1875.77055906861     
 soft         electrons  0.000000000000000E+000
 total        electrons   1875.77055906861     
 augmentation electrons   56.1985323537170     
 soft         electrons   1748.69140360219     
 total        electrons   1804.88993595591     
 augmentation electrons   38.2174070529537     
 soft         electrons   1748.69140360219     
 total        electrons   60.9219558465189     
 translations:           0           1           0
 132 F= -.36330127E+04 E0= -.36330127E+04  d E =-.779157E-03  mag=    61.0000
 curvature:  -0.27 expect dE=-0.655E-03 dE for cont linesearch -0.151E-09
 trial: gam= 1.03214 g(F)=  0.241E-02 g(S)=  0.000E+00 ort =-0.217E-05 (trialstep = 0.241E+00)
 search vector abs. value=  0.115E-01
 bond charge predicted
       N       E                     dE             d eps       ncg     rms          rms(c)
DAV:   1    -0.359536231733E+04   -0.36816E-04   -0.42382E-02  5504   0.254E-01    0.918E-02
DAV:   2    -0.359536255414E+04   -0.23681E-03   -0.22829E-03  6016   0.369E-02    0.449E-02
DAV:   3    -0.359536255982E+04   -0.56796E-05   -0.72197E-05  6272   0.737E-03    0.243E-02
DAV:   4    -0.359536255744E+04    0.23756E-05   -0.61849E-06  6528   0.259E-03    0.155E-02
DAV:   5    -0.359536255644E+04    0.10036E-05   -0.32704E-06  6016   0.238E-03    0.457E-03
DAV:   6    -0.359536255654E+04   -0.99666E-07   -0.84776E-07  4224   0.892E-04
 augmentation electrons   1804.88969587836     
 soft         electrons  0.000000000000000E+000
 total        electrons   1804.88969587836     
 augmentation electrons -7.801205619794356E-002
 soft         electrons  0.000000000000000E+000
 total        electrons -7.801205619794356E-002
 augmentation electrons   1932.39388869451     
 soft         electrons  0.000000000000000E+000
 total        electrons   1932.39388869451     
 augmentation electrons   1875.77085675251     
 soft         electrons  0.000000000000000E+000
 total        electrons   1875.77085675251     
 augmentation electrons   56.1984096195728     
 soft         electrons   1748.69123077221     
 total        electrons   1804.88964039179     
 augmentation electrons   38.2175711360246     
 soft         electrons   1748.69123077221     
 total        electrons   60.9219635584950     
 translations:           0           1           0
 133 F= -.36330131E+04 E0= -.36330131E+04  d E =-.416737E-03  mag=    61.0000
 trial-energy change:   -0.000417  1 .order   -0.000440   -0.000580   -0.000299
 step:   0.4984(harm=  0.4984)  dis= 0.00121  next Energy= -3633.013329 (dE=-0.599E-03)
 bond charge predicted
       N       E                     dE             d eps       ncg     rms          rms(c)
DAV:   1    -0.359536227875E+04    0.27769E-03   -0.48426E-02  5504   0.271E-01    0.982E-02
DAV:   2    -0.359536254929E+04   -0.27054E-03   -0.26088E-03  6016   0.395E-02    0.478E-02
DAV:   3    -0.359536255553E+04   -0.62336E-05   -0.81912E-05  6272   0.787E-03    0.259E-02
DAV:   4    -0.359536255275E+04    0.27762E-05   -0.72854E-06  6528   0.280E-03    0.165E-02
DAV:   5    -0.359536255165E+04    0.10970E-05   -0.38046E-06  6016   0.250E-03    0.487E-03
DAV:   6    -0.359536255177E+04   -0.11967E-06   -0.93436E-07  4480   0.922E-04
 augmentation electrons   1804.88945174213     
 soft         electrons  0.000000000000000E+000
 total        electrons   1804.88945174213     
 augmentation electrons -7.803146005604641E-002
 soft         electrons  0.000000000000000E+000
 total        electrons -7.803146005604641E-002
 augmentation electrons   1932.41721489159     
 soft         electrons  0.000000000000000E+000
 total        electrons   1932.41721489159     
 augmentation electrons   1875.79418294959     
 soft         electrons  0.000000000000000E+000
 total        electrons   1875.79418294959     
 augmentation electrons   56.1983599999736     
 soft         electrons   1748.69103586846     
 total        electrons   1804.88939586843     
 augmentation electrons   38.2177185973386     
 soft         electrons   1748.69103586846     
 total        electrons   60.9219440717373     
 translations:           0           1           0
 134 F= -.36330133E+04 E0= -.36330133E+04  d E =-.560934E-03  mag=    61.0000
 curvature:  -1.19 expect dE=-0.264E-02 dE for cont linesearch -0.667E-06
 trial: gam= 0.71936 g(F)=  0.222E-02 g(S)=  0.000E+00 ort = 0.803E-04 (trialstep = 0.293E+00)
 search vector abs. value=  0.827E-02
 bond charge predicted
       N       E                     dE             d eps       ncg     rms          rms(c)
DAV:   1    -0.359536258585E+04   -0.34196E-04   -0.47601E-02  5504   0.259E-01    0.912E-02
DAV:   2    -0.359536281448E+04   -0.22863E-03   -0.22895E-03  6016   0.378E-02    0.456E-02
DAV:   3    -0.359536281704E+04   -0.25596E-05   -0.73868E-05  6016   0.763E-03    0.254E-02
DAV:   4    -0.359536281356E+04    0.34806E-05   -0.84202E-06  6528   0.308E-03    0.153E-02
DAV:   5    -0.359536281271E+04    0.85187E-06   -0.39573E-06  5888   0.238E-03
 augmentation electrons   1804.88928429110     
 soft         electrons  0.000000000000000E+000
 total        electrons   1804.88928429110     
 augmentation electrons -7.802749191270386E-002
 soft         electrons  0.000000000000000E+000
 total        electrons -7.802749191270386E-002
 augmentation electrons   1932.52335215479     
 soft         electrons  0.000000000000000E+000
 total        electrons   1932.52335215479     
 augmentation electrons   1875.90032021279     
 soft         electrons  0.000000000000000E+000
 total        electrons   1875.90032021279     
 augmentation electrons   56.1983595682086     
 soft         electrons   1748.69086853951     
 total        electrons   1804.88922810772     
 augmentation electrons   38.2178440957304     
 soft         electrons   1748.69086853951     
 total        electrons   60.9219479733413     
 translations:           0           1           0
 135 F= -.36330137E+04 E0= -.36330137E+04  d E =-.435526E-03  mag=    61.0000
 trial-energy change:   -0.000436  1 .order   -0.000467   -0.000668   -0.000267
 step:   0.4869(harm=  0.4869)  dis= 0.00103  next Energy= -3633.013846 (dE=-0.556E-03)
 reached required accuracy - stopping structural energy minimisation
 writing wavefunctions
