 ----------------------------------------------------
    OOO  PPPP  EEEEE N   N M   M PPPP
   O   O P   P E     NN  N MM MM P   P
   O   O PPPP  EEEEE N N N M M M PPPP   -- VERSION
   O   O P     E     N  NN M   M P
    OOO  P     EEEEE N   N M   M P
 ----------------------------------------------------
 running  512 mpi-ranks, with    1 threads/rank
 distrk:  each k-point on  512 cores,    1 groups
 distr:  one band on    4 cores,  128 groups
 vasp.6.3.2 27Jun22 (build Nov 12 2024 19:13:04) complex                        
  
 POSCAR found type information on POSCAR MnBrN C H 
 POSCAR found :  5 types and     635 ions
 scaLAPACK will be used
 LDA part: xc-table for Pade appr. of Perdew
 POSCAR, INCAR and KPOINTS ok, starting setup
 FFT: planning ... GRIDC
 FFT: planning ... GRID_SOFT
 FFT: planning ... GRID
 WAVECAR not read
 entering main loop
       N       E                     dE             d eps       ncg     rms          rms(c)
DAV:   1     0.982921688334E+04    0.98292E+04   -0.80291E+05  5376   0.119E+03
DAV:   2    -0.262632377627E+04   -0.12456E+05   -0.12033E+05  6400   0.259E+02
DAV:   3    -0.384500917786E+04   -0.12187E+04   -0.12081E+04  6400   0.864E+01
DAV:   4    -0.387708005153E+04   -0.32071E+02   -0.31884E+02  6656   0.159E+01
DAV:   5    -0.387807904329E+04   -0.99899E+00   -0.99785E+00  6656   0.267E+00    0.136E+02
DAV:   6    -0.400018032637E+04   -0.12210E+03   -0.32124E+03  6400   0.372E+01    0.288E+02
DAV:   7    -0.362930472822E+04    0.37088E+03   -0.57380E+02  6272   0.318E+01    0.107E+02
DAV:   8    -0.371052805068E+04   -0.81223E+02   -0.12904E+03  6528   0.347E+01    0.120E+02
DAV:   9    -0.365976690211E+04    0.50761E+02   -0.80330E+02  6656   0.204E+01    0.111E+02
DAV:  10    -0.360693774289E+04    0.52829E+02   -0.28339E+02  6528   0.155E+01    0.100E+02
DAV:  11    -0.358087918551E+04    0.26059E+02   -0.24320E+02  6144   0.102E+01    0.885E+01
DAV:  12    -0.357859618507E+04    0.22830E+01   -0.42016E+02  6272   0.700E+00    0.802E+01
DAV:  13    -0.357487605405E+04    0.37201E+01   -0.20293E+02  6400   0.746E+00    0.807E+01
DAV:  14    -0.358112060031E+04   -0.62445E+01   -0.43632E+02  6272   0.542E+00    0.816E+01
DAV:  15    -0.356527813912E+04    0.15842E+02   -0.26822E+02  6272   0.524E+00    0.756E+01
DAV:  16    -0.355195985811E+04    0.13318E+02   -0.10314E+02  5760   0.323E+00    0.517E+01
DAV:  17    -0.355267194010E+04   -0.71208E+00   -0.10782E+01  5632   0.125E+00    0.588E+01
DAV:  18    -0.355374366665E+04   -0.10717E+01   -0.26456E+00  5632   0.824E-01    0.584E+01
DAV:  19    -0.355235409450E+04    0.13896E+01   -0.12409E+01  6144   0.829E-01    0.555E+01
DAV:  20    -0.355328965699E+04   -0.93556E+00   -0.67420E+00  5632   0.958E-01    0.564E+01
DAV:  21    -0.355329299053E+04   -0.33335E-02   -0.37324E-01  5760   0.468E-01    0.556E+01
DAV:  22    -0.355366298613E+04   -0.37000E+00   -0.97589E-01  6784   0.466E-01    0.550E+01
DAV:  23    -0.355385289190E+04   -0.18991E+00   -0.64386E+00  6528   0.539E-01    0.527E+01
DAV:  24    -0.355465583518E+04   -0.80294E+00   -0.10341E+00  5760   0.450E-01    0.505E+01
DAV:  25    -0.355470107248E+04   -0.45237E-01   -0.43467E-01  6016   0.382E-01    0.502E+01
DAV:  26    -0.355499922799E+04   -0.29816E+00   -0.15106E+00  6784   0.384E-01    0.477E+01
DAV:  27    -0.355641159721E+04   -0.14124E+01   -0.22383E+00  6144   0.924E-01    0.458E+01
DAV:  28    -0.355818840310E+04   -0.17768E+01   -0.97208E+00  6400   0.113E+00    0.408E+01
DAV:  29    -0.355801159132E+04    0.17681E+00   -0.31580E-01  5760   0.503E-01    0.416E+01
DAV:  30    -0.355836574222E+04   -0.35415E+00   -0.88653E-01  6656   0.301E-01    0.423E+01
DAV:  31    -0.356240850059E+04   -0.40428E+01   -0.42495E+01  6528   0.206E+00    0.392E+01
DAV:  32    -0.356282436793E+04   -0.41587E+00   -0.11280E+00  5760   0.870E-01    0.395E+01
DAV:  33    -0.356241036560E+04    0.41400E+00   -0.21858E+00  6144   0.585E-01    0.354E+01
DAV:  34    -0.356422340261E+04   -0.18130E+01   -0.51074E-01  6144   0.656E-01    0.349E+01
DAV:  35    -0.356478428960E+04   -0.56089E+00   -0.12010E+01  6528   0.181E+00    0.356E+01
DAV:  36    -0.356478580984E+04   -0.15202E-02   -0.36987E+00  6400   0.127E+00    0.345E+01
DAV:  37    -0.356147115023E+04    0.33147E+01   -0.12569E+01  6656   0.174E+00    0.319E+01
DAV:  38    -0.356101500097E+04    0.45615E+00   -0.61880E+00  5760   0.183E+00    0.331E+01
DAV:  39    -0.355791788906E+04    0.30971E+01   -0.31687E+00  6272   0.140E+00    0.334E+01
DAV:  40    -0.355336615962E+04    0.45517E+01   -0.45702E+00  6144   0.133E+00    0.344E+01
DAV:  41    -0.355069446418E+04    0.26717E+01   -0.10736E+00  6016   0.783E-01    0.308E+01
DAV:  42    -0.355207140565E+04   -0.13769E+01   -0.42707E+00  6400   0.883E-01    0.286E+01
DAV:  43    -0.355662496002E+04   -0.45536E+01   -0.22596E+00  6144   0.180E+00    0.277E+01
DAV:  44    -0.355418250802E+04    0.24425E+01   -0.83178E+00  6528   0.205E+00    0.280E+01
DAV:  45    -0.355542718747E+04   -0.12447E+01   -0.20008E+00  6144   0.918E-01    0.274E+01
DAV:  46    -0.355536050968E+04    0.66678E-01   -0.69451E-02  6016   0.253E-01    0.274E+01
DAV:  47    -0.355542870326E+04   -0.68194E-01   -0.72678E-02  5760   0.126E-01    0.275E+01
DAV:  48    -0.355541756085E+04    0.11142E-01   -0.43009E-03  5760   0.510E-02    0.275E+01
DAV:  49    -0.355542121468E+04   -0.36538E-02   -0.54035E-04  6144   0.122E-02    0.275E+01
DAV:  50    -0.355543175244E+04   -0.10538E-01   -0.14429E-02  5632   0.391E-02    0.275E+01
DAV:  51    -0.355822791554E+04   -0.27962E+01   -0.29746E-01  6272   0.706E-01    0.264E+01
DAV:  52    -0.355982674748E+04   -0.15988E+01   -0.39001E-01  6400   0.559E-01    0.260E+01
DAV:  53    -0.356016002133E+04   -0.33327E+00   -0.14690E+00  6656   0.499E-01    0.258E+01
DAV:  54    -0.355963832138E+04    0.52170E+00   -0.23743E+00  6016   0.741E-01    0.242E+01
DAV:  55    -0.356035631329E+04   -0.71799E+00   -0.22518E-01  6272   0.583E-01    0.237E+01
DAV:  56    -0.356092087335E+04   -0.56456E+00   -0.10963E+01  5888   0.210E+00    0.213E+01
DAV:  57    -0.356574480973E+04   -0.48239E+01   -0.60929E+00  6528   0.142E+00    0.184E+01
DAV:  58    -0.356728658086E+04   -0.15418E+01   -0.41873E+00  6272   0.107E+00    0.185E+01
DAV:  59    -0.356540421830E+04    0.18824E+01   -0.17074E+00  6016   0.117E+00    0.187E+01
DAV:  60    -0.356265083439E+04    0.27534E+01   -0.22016E+00  6400   0.119E+00    0.219E+01
DAV:  61    -0.355831904495E+04    0.43318E+01   -0.16182E+00  6400   0.186E+00    0.207E+01
DAV:  62    -0.355511570850E+04    0.32033E+01   -0.11478E+00  6016   0.104E+00    0.214E+01
DAV:  63    -0.355222457534E+04    0.28911E+01   -0.70941E-01  7040   0.773E-01    0.233E+01
DAV:  64    -0.355109249206E+04    0.11321E+01   -0.86274E-01  6272   0.102E+00    0.267E+01
DAV:  65    -0.355419296585E+04   -0.31005E+01   -0.98176E-01  6144   0.915E-01    0.262E+01
DAV:  66    -0.355036170505E+04    0.38313E+01   -0.26785E+00  6528   0.108E+00    0.289E+01
DAV:  67    -0.354992188673E+04    0.43982E+00   -0.62202E-01  5888   0.607E-01    0.278E+01
DAV:  68    -0.354989748342E+04    0.24403E-01   -0.25067E-02  5888   0.153E-01    0.278E+01
DAV:  69    -0.354978716147E+04    0.11032E+00   -0.45414E-03  6400   0.541E-02    0.279E+01
DAV:  70    -0.354955994669E+04    0.22721E+00   -0.98595E-03  5760   0.804E-02    0.280E+01
DAV:  71    -0.354857047743E+04    0.98947E+00   -0.36122E-01  6528   0.752E-01    0.278E+01
DAV:  72    -0.354662113352E+04    0.19493E+01   -0.17395E-01  6400   0.405E-01    0.283E+01
DAV:  73    -0.354441808583E+04    0.22030E+01   -0.19022E-01  6656   0.392E-01    0.290E+01
DAV:  74    -0.354368997928E+04    0.72811E+00   -0.11478E-01  6272   0.284E-01    0.295E+01
DAV:  75    -0.354329022143E+04    0.39976E+00   -0.34938E-02  6528   0.135E-01    0.296E+01
DAV:  76    -0.356859680793E+04   -0.25307E+02   -0.51681E+01  6272   0.545E+00    0.329E+01
DAV:  77    -0.357000622864E+04   -0.14094E+01   -0.13379E+01  6144   0.220E+00    0.256E+01
DAV:  78    -0.357006153789E+04   -0.55309E-01   -0.79480E+00  6528   0.166E+00    0.196E+01
DAV:  79    -0.357054249875E+04   -0.48096E+00   -0.14151E+00  6528   0.747E-01    0.194E+01
DAV:  80    -0.357031447658E+04    0.22802E+00   -0.69149E-01  6656   0.101E+00    0.156E+01
DAV:  81    -0.357048554506E+04   -0.17107E+00   -0.71441E+00  6144   0.168E+00    0.122E+01
DAV:  82    -0.357167737419E+04   -0.11918E+01   -0.10445E+00  6272   0.125E+00    0.108E+01
DAV:  83    -0.357201406790E+04   -0.33669E+00   -0.91334E-01  6272   0.112E+00    0.997E+00
DAV:  84    -0.357215920315E+04   -0.14514E+00   -0.16360E+00  6272   0.137E+00    0.899E+00
DAV:  85    -0.357230922064E+04   -0.15002E+00   -0.21692E+00  7040   0.138E+00    0.812E+00
DAV:  86    -0.357277830485E+04   -0.46908E+00   -0.22993E+00  6912   0.143E+00    0.784E+00
DAV:  87    -0.357308322908E+04   -0.30492E+00   -0.68240E-01  6784   0.826E-01    0.811E+00
DAV:  88    -0.357324396817E+04   -0.16074E+00   -0.41345E-01  6784   0.663E-01    0.888E+00
DAV:  89    -0.357328703682E+04   -0.43069E-01   -0.12158E-01  6784   0.337E-01    0.120E+01
DAV:  90    -0.357326890064E+04    0.18136E-01   -0.49080E-02  6272   0.252E-01    0.112E+01
DAV:  91    -0.357477557772E+04   -0.15067E+01   -0.64943E+00  6144   0.226E+00    0.759E+00
DAV:  92    -0.357632237584E+04   -0.15468E+01   -0.11598E+00  6016   0.112E+00    0.723E+00
DAV:  93    -0.357832777757E+04   -0.20054E+01   -0.29776E+00  6400   0.842E-01    0.122E+01
DAV:  94    -0.357824115531E+04    0.86622E-01   -0.14194E-01  5632   0.441E-01    0.127E+01
DAV:  95    -0.357827160622E+04   -0.30451E-01   -0.19003E-02  6272   0.142E-01    0.126E+01
DAV:  96    -0.358195649274E+04   -0.36849E+01   -0.63210E+00  6656   0.187E+00    0.122E+01
DAV:  97    -0.358229664943E+04   -0.34016E+00   -0.24294E+00  6144   0.663E-01    0.114E+01
DAV:  98    -0.358239306476E+04   -0.96415E-01   -0.25908E-01  5632   0.340E-01    0.109E+01
DAV:  99    -0.358240421147E+04   -0.11147E-01   -0.99575E-01  6016   0.695E-01    0.102E+01
DAV: 100    -0.358225373412E+04    0.15048E+00   -0.13024E+00  6400   0.875E-01    0.926E+00
DAV: 101    -0.358184159672E+04    0.41214E+00   -0.93850E+00  6656   0.265E+00    0.148E+01
DAV: 102    -0.358214857771E+04   -0.30698E+00   -0.22882E+00  6016   0.840E-01    0.104E+01
DAV: 103    -0.358248450026E+04   -0.33592E+00   -0.84105E-02  6272   0.310E-01    0.998E+00
DAV: 104    -0.358348471586E+04   -0.10002E+01   -0.60774E-01  6400   0.998E-01    0.116E+01
DAV: 105    -0.358381102120E+04   -0.32631E+00   -0.15481E-01  6784   0.484E-01    0.131E+01
DAV: 106    -0.358361120702E+04    0.19981E+00   -0.10077E-01  6272   0.520E-01    0.130E+01
DAV: 107    -0.358375287026E+04   -0.14166E+00   -0.10077E-01  7040   0.452E-01    0.127E+01
DAV: 108    -0.358367490269E+04    0.77968E-01   -0.59160E-01  6784   0.875E-01    0.102E+01
DAV: 109    -0.358350750725E+04    0.16740E+00   -0.12079E+00  6912   0.110E+00    0.634E+00
DAV: 110    -0.358355292490E+04   -0.45418E-01   -0.62461E-01  6784   0.782E-01    0.605E+00
DAV: 111    -0.358364871470E+04   -0.95790E-01   -0.84110E-01  6656   0.941E-01    0.911E+00
DAV: 112    -0.358354978162E+04    0.98933E-01   -0.35361E-01  6528   0.665E-01    0.867E+00
DAV: 113    -0.358356455596E+04   -0.14774E-01   -0.81862E-02  6016   0.258E-01    0.745E+00
DAV: 114    -0.358357891037E+04   -0.14354E-01   -0.14878E-02  5632   0.137E-01    0.760E+00
DAV: 115    -0.358356852669E+04    0.10384E-01   -0.20443E-02  6912   0.150E-01    0.683E+00
DAV: 116    -0.358367375125E+04   -0.10522E+00   -0.20210E-01  6656   0.473E-01    0.882E+00
DAV: 117    -0.358376146929E+04   -0.87718E-01   -0.32642E-01  6784   0.536E-01    0.952E+00
DAV: 118    -0.358380933050E+04   -0.47861E-01   -0.88535E-01  6912   0.754E-01    0.557E+00
DAV: 119    -0.358417862620E+04   -0.36930E+00   -0.24360E+00  6784   0.606E-01    0.113E+01
DAV: 120    -0.358419074270E+04   -0.12117E-01   -0.10288E-01  5632   0.315E-01    0.114E+01
DAV: 121    -0.358442131283E+04   -0.23057E+00   -0.27347E-01  7168   0.503E-01    0.116E+01
DAV: 122    -0.358440535848E+04    0.15954E-01   -0.32373E-02  6272   0.215E-01    0.115E+01
DAV: 123    -0.358437379378E+04    0.31565E-01   -0.81450E-03  6784   0.920E-02    0.113E+01
DAV: 124    -0.358436582991E+04    0.79639E-02   -0.11297E-01  6784   0.334E-01    0.110E+01
DAV: 125    -0.358434855281E+04    0.17277E-01   -0.61357E-01  7168   0.550E-01    0.104E+01
DAV: 126    -0.358417721521E+04    0.17134E+00   -0.89393E-01  7040   0.706E-01    0.915E+00
DAV: 127    -0.358408259242E+04    0.94623E-01   -0.77734E-01  7168   0.460E-01    0.378E+00
DAV: 128    -0.358415450384E+04   -0.71911E-01   -0.95384E-02  5760   0.218E-01    0.396E+00
DAV: 129    -0.358418053348E+04   -0.26030E-01   -0.55238E-01  6528   0.254E-01    0.417E+00
DAV: 130    -0.358415661272E+04    0.23921E-01   -0.14377E-01  6528   0.240E-01    0.406E+00
DAV: 131    -0.358409544469E+04    0.61168E-01   -0.71791E-01  6528   0.406E-01    0.421E+00
DAV: 132    -0.358391449175E+04    0.18095E+00   -0.13450E+00  6912   0.528E-01    0.472E+00
DAV: 133    -0.358388003504E+04    0.34457E-01   -0.28627E-01  6528   0.346E-01    0.470E+00
DAV: 134    -0.358373117752E+04    0.14886E+00   -0.71119E-01  6400   0.505E-01    0.463E+00
DAV: 135    -0.358387513229E+04   -0.14395E+00   -0.64441E-01  6528   0.385E-01    0.707E+00
DAV: 136    -0.358416347674E+04   -0.28834E+00   -0.27981E-01  6400   0.404E-01    0.705E+00
DAV: 137    -0.358406628898E+04    0.97188E-01   -0.52275E-01  6784   0.608E-01    0.827E+00
DAV: 138    -0.358397024488E+04    0.96044E-01   -0.27673E-01  7040   0.398E-01    0.903E+00
DAV: 139    -0.358389970127E+04    0.70544E-01   -0.28514E-01  6528   0.494E-01    0.878E+00
DAV: 140    -0.358407964902E+04   -0.17995E+00   -0.25756E-01  7168   0.464E-01    0.740E+00
DAV: 141    -0.358427639510E+04   -0.19675E+00   -0.10589E+00  6656   0.604E-01    0.583E+00
DAV: 142    -0.358436567157E+04   -0.89276E-01   -0.12432E-01  5888   0.300E-01    0.763E+00
DAV: 143    -0.358430609589E+04    0.59576E-01   -0.99821E-02  6272   0.240E-01    0.596E+00
DAV: 144    -0.358433093497E+04   -0.24839E-01   -0.34888E-01  6912   0.427E-01    0.792E+00
DAV: 145    -0.358427388902E+04    0.57046E-01   -0.15168E+00  6656   0.467E-01    0.233E+00
DAV: 146    -0.358433631397E+04   -0.62425E-01   -0.54313E-01  6400   0.557E-01    0.241E+00
DAV: 147    -0.358429895317E+04    0.37361E-01   -0.33554E-01  6272   0.631E-01    0.395E+00
DAV: 148    -0.358424068317E+04    0.58270E-01   -0.10231E+00  6912   0.775E-01    0.116E+01
DAV: 149    -0.358418152195E+04    0.59161E-01   -0.97385E-02  5632   0.279E-01    0.112E+01
DAV: 150    -0.358415144022E+04    0.30082E-01   -0.44225E-03  6656   0.552E-02    0.104E+01
DAV: 151    -0.358420882363E+04   -0.57383E-01   -0.56496E-02  6528   0.113E-01    0.737E+00
DAV: 152    -0.358430266733E+04   -0.93844E-01   -0.19855E-01  6656   0.218E-01    0.965E+00
DAV: 153    -0.358429523212E+04    0.74352E-02   -0.14482E-02  5632   0.888E-02    0.905E+00
DAV: 154    -0.358433366949E+04   -0.38437E-01   -0.14660E-02  6912   0.575E-02    0.809E+00
DAV: 155    -0.358448573863E+04   -0.15207E+00   -0.16684E-01  6784   0.249E-01    0.102E+01
DAV: 156    -0.358466819797E+04   -0.18246E+00   -0.19414E-01  7296   0.303E-01    0.137E+01
DAV: 157    -0.358452610483E+04    0.14209E+00   -0.27284E-02  6272   0.194E-01    0.988E+00
DAV: 158    -0.358447942831E+04    0.46677E-01   -0.92779E-02  6784   0.310E-01    0.427E+00
DAV: 159    -0.358446094012E+04    0.18488E-01   -0.11731E-01  6528   0.286E-01    0.395E+00
DAV: 160    -0.358447255140E+04   -0.11611E-01   -0.39838E-02  6016   0.153E-01    0.385E+00
DAV: 161    -0.358456209449E+04   -0.89543E-01   -0.97182E-01  6272   0.678E-01    0.326E+00
DAV: 162    -0.358463151681E+04   -0.69422E-01   -0.13170E-01  6272   0.408E-01    0.338E+00
DAV: 163    -0.358464222531E+04   -0.10708E-01   -0.52458E-02  6784   0.157E-01    0.331E+00
DAV: 164    -0.358464210255E+04    0.12276E-03   -0.55844E-02  6784   0.157E-01    0.316E+00
DAV: 165    -0.358459224076E+04    0.49862E-01   -0.13355E-01  6656   0.290E-01    0.284E+00
DAV: 166    -0.358456727253E+04    0.24968E-01   -0.62918E-02  7040   0.207E-01    0.255E+00
DAV: 167    -0.358454323372E+04    0.24039E-01   -0.42975E-02  6400   0.152E-01    0.259E+00
DAV: 168    -0.358447282752E+04    0.70406E-01   -0.11117E-01  6912   0.311E-01    0.277E+00
DAV: 169    -0.358445381803E+04    0.19009E-01   -0.24312E-02  6400   0.149E-01    0.261E+00
DAV: 170    -0.358443816568E+04    0.15652E-01   -0.10874E-02  6784   0.920E-02    0.255E+00
DAV: 171    -0.358455182385E+04   -0.11366E+00   -0.53294E-01  6656   0.705E-01    0.337E+00
DAV: 172    -0.358453295060E+04    0.18873E-01   -0.43858E-02  5760   0.256E-01    0.377E+00
DAV: 173    -0.358449079523E+04    0.42155E-01   -0.26893E-02  6784   0.198E-01    0.333E+00
DAV: 174    -0.358446336371E+04    0.27432E-01   -0.26387E-02  6912   0.165E-01    0.325E+00
DAV: 175    -0.358445901200E+04    0.43517E-02   -0.22211E-02  6400   0.935E-02    0.319E+00
DAV: 176    -0.358448321995E+04   -0.24208E-01   -0.21868E-02  6656   0.116E-01    0.426E+00
DAV: 177    -0.358448727401E+04   -0.40541E-02   -0.72033E-03  6528   0.734E-02    0.405E+00
DAV: 178    -0.358448856405E+04   -0.12900E-02   -0.72402E-04  5760   0.224E-02    0.405E+00
DAV: 179    -0.358449225124E+04   -0.36872E-02   -0.41848E-04  6912   0.167E-02    0.416E+00
DAV: 180    -0.358448919012E+04    0.30611E-02   -0.10220E-02  6400   0.521E-02    0.408E+00
DAV: 181    -0.358447478792E+04    0.14402E-01   -0.17274E-02  6528   0.894E-02    0.333E+00
DAV: 182    -0.358448140374E+04   -0.66158E-02   -0.24939E-03  6144   0.353E-02    0.345E+00
DAV: 183    -0.358448405808E+04   -0.26543E-02   -0.75519E-03  6912   0.298E-02    0.351E+00
DAV: 184    -0.358448351468E+04    0.54340E-03   -0.12781E-01  6784   0.125E-01    0.343E+00
DAV: 185    -0.358449572414E+04   -0.12209E-01   -0.67502E-02  6912   0.105E-01    0.328E+00
DAV: 186    -0.358411776931E+04    0.37795E+00   -0.23794E+00  6784   0.134E+00    0.568E+00
DAV: 187    -0.358417693693E+04   -0.59168E-01   -0.14936E-01  5632   0.240E-01    0.565E+00
DAV: 188    -0.358417928968E+04   -0.23528E-02   -0.47938E-03  6656   0.618E-02    0.562E+00
DAV: 189    -0.358417785962E+04    0.14301E-02   -0.18228E-03  7168   0.243E-02    0.554E+00
DAV: 190    -0.358418248604E+04   -0.46264E-02   -0.15709E-03  6400   0.238E-02    0.541E+00
DAV: 191    -0.358411579669E+04    0.66689E-01   -0.38505E-01  6528   0.304E-01    0.338E+00
DAV: 192    -0.358412434277E+04   -0.85461E-02   -0.26991E-02  5760   0.154E-01    0.323E+00
DAV: 193    -0.358414284047E+04   -0.18498E-01   -0.87960E-03  6272   0.106E-01    0.302E+00
DAV: 194    -0.358415724430E+04   -0.14404E-01   -0.31519E-02  6400   0.111E-01    0.277E+00
DAV: 195    -0.358417465472E+04   -0.17410E-01   -0.30093E-02  6784   0.113E-01    0.276E+00
DAV: 196    -0.358418238066E+04   -0.77259E-02   -0.87796E-01  6656   0.910E-01    0.317E+00
DAV: 197    -0.358423400128E+04   -0.51621E-01   -0.10773E-01  6016   0.197E-01    0.313E+00
DAV: 198    -0.358425545992E+04   -0.21459E-01   -0.54169E-02  6912   0.109E-01    0.310E+00
DAV: 199    -0.358428768204E+04   -0.32222E-01   -0.40366E-01  6528   0.307E-01    0.317E+00
DAV: 200    -0.358431167812E+04   -0.23996E-01   -0.23447E-01  7040   0.211E-01    0.324E+00
DAV: 201    -0.358407756728E+04    0.23411E+00   -0.54049E+00  6912   0.226E+00    0.995E+00
DAV: 202    -0.358419940781E+04   -0.12184E+00   -0.10872E+00  6528   0.885E-01    0.299E+00
DAV: 203    -0.358438829401E+04   -0.18889E+00   -0.13897E+00  6528   0.414E-01    0.862E+00
DAV: 204    -0.358427925387E+04    0.10904E+00   -0.15274E+00  6528   0.559E-01    0.200E+00
DAV: 205    -0.358436519453E+04   -0.85941E-01   -0.81771E-02  6272   0.236E-01    0.308E+00
DAV: 206    -0.358436094644E+04    0.42481E-02   -0.39075E-01  6400   0.230E-01    0.461E+00
DAV: 207    -0.358435293345E+04    0.80130E-02   -0.10604E-02  5632   0.105E-01    0.461E+00
DAV: 208    -0.358434683595E+04    0.60975E-02   -0.18363E-02  6656   0.516E-02    0.409E+00
DAV: 209    -0.358435153529E+04   -0.46993E-02   -0.47230E-02  6144   0.122E-01    0.206E+00
DAV: 210    -0.358437444821E+04   -0.22913E-01   -0.49979E-02  6528   0.147E-01    0.126E+00
DAV: 211    -0.358439719436E+04   -0.22746E-01   -0.12783E-01  6272   0.121E-01    0.401E+00
DAV: 212    -0.358438074982E+04    0.16445E-01   -0.40835E-02  6272   0.135E-01    0.287E+00
DAV: 213    -0.358437586952E+04    0.48803E-02   -0.35143E-02  6656   0.799E-02    0.198E+00
DAV: 214    -0.358438139063E+04   -0.55211E-02   -0.90816E-03  6144   0.518E-02    0.175E+00
DAV: 215    -0.358438547320E+04   -0.40826E-02   -0.51783E-03  6272   0.482E-02    0.183E+00
DAV: 216    -0.358441478423E+04   -0.29311E-01   -0.25468E-01  6656   0.276E-01    0.235E+00
DAV: 217    -0.358442500886E+04   -0.10225E-01   -0.45632E-02  6400   0.155E-01    0.241E+00
DAV: 218    -0.358443575475E+04   -0.10746E-01   -0.49349E-02  7296   0.156E-01    0.252E+00
DAV: 219    -0.358443998801E+04   -0.42333E-02   -0.14036E-02  6144   0.692E-02    0.254E+00
DAV: 220    -0.358444029721E+04   -0.30920E-03   -0.50664E-03  6528   0.295E-02    0.254E+00
DAV: 221    -0.358442140864E+04    0.18889E-01   -0.32030E-01  6528   0.185E-01    0.276E+00
DAV: 222    -0.358442999321E+04   -0.85846E-02   -0.57156E-03  5632   0.668E-02    0.278E+00
DAV: 223    -0.358443006357E+04   -0.70362E-04   -0.12335E-02  6528   0.402E-02    0.279E+00
DAV: 224    -0.358443219003E+04   -0.21265E-02   -0.30221E-02  7040   0.559E-02    0.283E+00
DAV: 225    -0.358443401538E+04   -0.18253E-02   -0.10925E-01  6656   0.939E-02    0.289E+00
DAV: 226    -0.358446685385E+04   -0.32838E-01   -0.94514E-02  6528   0.111E-01    0.286E+00
DAV: 227    -0.358447021810E+04   -0.33643E-02   -0.41573E-02  6656   0.738E-02    0.290E+00
DAV: 228    -0.358447334343E+04   -0.31253E-02   -0.52615E-03  6016   0.379E-02    0.292E+00
DAV: 229    -0.358446684029E+04    0.65031E-02   -0.55434E-02  6400   0.872E-02    0.286E+00
DAV: 230    -0.358446074192E+04    0.60984E-02   -0.90571E-02  6912   0.982E-02    0.276E+00
DAV: 231    -0.358445554822E+04    0.51937E-02   -0.48693E-02  6272   0.810E-02    0.261E+00
DAV: 232    -0.358443754806E+04    0.18000E-01   -0.11546E-01  6656   0.104E-01    0.244E+00
DAV: 233    -0.358442768983E+04    0.98582E-02   -0.45027E-02  6400   0.679E-02    0.240E+00
DAV: 234    -0.358442017457E+04    0.75153E-02   -0.22042E-02  6400   0.606E-02    0.240E+00
DAV: 235    -0.358442428589E+04   -0.41113E-02   -0.33596E-02  6528   0.695E-02    0.241E+00
DAV: 236    -0.358442348708E+04    0.79881E-03   -0.35537E-02  6272   0.620E-02    0.240E+00
DAV: 237    -0.358443036991E+04   -0.68828E-02   -0.52857E-03  6016   0.423E-02    0.238E+00
DAV: 238    -0.358443470103E+04   -0.43311E-02   -0.11218E-02  6400   0.434E-02    0.237E+00
DAV: 239    -0.358443719414E+04   -0.24931E-02   -0.80343E-03  6912   0.363E-02    0.238E+00
DAV: 240    -0.358443853302E+04   -0.13389E-02   -0.27917E-03  6144   0.253E-02    0.239E+00
DAV: 241    -0.358444432892E+04   -0.57959E-02   -0.37773E-02  6400   0.716E-02    0.243E+00
DAV: 242    -0.358444440483E+04   -0.75906E-04   -0.31074E-03  5888   0.426E-02    0.240E+00
DAV: 243    -0.358444379674E+04    0.60809E-03   -0.63071E-04  6272   0.184E-02    0.237E+00
DAV: 244    -0.358444393960E+04   -0.14285E-03   -0.61199E-05  5632   0.737E-03    0.238E+00
DAV: 245    -0.358444259366E+04    0.13459E-02   -0.24100E-03  6528   0.199E-02    0.237E+00
DAV: 246    -0.358444133803E+04    0.12556E-02   -0.50611E-02  6528   0.700E-02    0.239E+00
DAV: 247    -0.358444400238E+04   -0.26643E-02   -0.11602E-03  5632   0.325E-02    0.240E+00
DAV: 248    -0.358444123271E+04    0.27697E-02   -0.18405E-03  6400   0.275E-02    0.237E+00
DAV: 249    -0.358443978750E+04    0.14452E-02   -0.15705E-03  7040   0.211E-02    0.236E+00
DAV: 250    -0.358443752047E+04    0.22670E-02   -0.48814E-03  6656   0.408E-02    0.231E+00
DAV: 251    -0.358443226255E+04    0.52579E-02   -0.15490E-02  6400   0.556E-02    0.230E+00
DAV: 252    -0.358443212759E+04    0.13496E-03   -0.55025E-04  5632   0.224E-02    0.229E+00
DAV: 253    -0.358443180527E+04    0.32232E-03   -0.47266E-04  6400   0.137E-02    0.229E+00
DAV: 254    -0.358443103614E+04    0.76913E-03   -0.22152E-04  6656   0.989E-03    0.228E+00
DAV: 255    -0.358443124276E+04   -0.20662E-03   -0.29097E-05  5632   0.534E-03    0.229E+00
DAV: 256    -0.358436638201E+04    0.64861E-01   -0.71672E-01  6656   0.617E-01    0.159E+00
DAV: 257    -0.358437335814E+04   -0.69761E-02   -0.23290E-01  6400   0.199E-01    0.195E+00
DAV: 258    -0.358438569457E+04   -0.12336E-01   -0.17021E-01  5760   0.229E-01    0.151E+00
DAV: 259    -0.358438454094E+04    0.11536E-02   -0.27115E-02  6400   0.818E-02    0.141E+00
DAV: 260    -0.358438333213E+04    0.12088E-02   -0.53016E-03  6016   0.364E-02    0.138E+00
DAV: 261    -0.358438028649E+04    0.30456E-02   -0.32661E-02  6400   0.767E-02    0.124E+00
DAV: 262    -0.358438335964E+04   -0.30731E-02   -0.29077E-03  5760   0.463E-02    0.129E+00
DAV: 263    -0.358438630036E+04   -0.29407E-02   -0.88767E-03  6400   0.546E-02    0.133E+00
DAV: 264    -0.358439171704E+04   -0.54167E-02   -0.45641E-02  6400   0.118E-01    0.148E+00
DAV: 265    -0.358439496011E+04   -0.32431E-02   -0.18798E-02  6272   0.666E-02    0.149E+00
DAV: 266    -0.358439436220E+04    0.59790E-03   -0.38960E-02  6272   0.786E-02    0.143E+00
DAV: 267    -0.358439472619E+04   -0.36398E-03   -0.10917E-02  6400   0.695E-02    0.115E+00
DAV: 268    -0.358439417108E+04    0.55510E-03   -0.16967E-02  6528   0.726E-02    0.354E-01
DAV: 269    -0.358439472692E+04   -0.55584E-03   -0.45484E-02  6656   0.938E-02    0.390E-01
DAV: 270    -0.358439783915E+04   -0.31122E-02   -0.38258E-03  5632   0.645E-02    0.382E-01
DAV: 271    -0.358439856890E+04   -0.72976E-03   -0.21746E-03  6272   0.243E-02    0.611E-01
DAV: 272    -0.358439816037E+04    0.40854E-03   -0.16007E-04  5632   0.135E-02    0.652E-01
DAV: 273    -0.358439817197E+04   -0.11603E-04   -0.21453E-04  6016   0.100E-02    0.629E-01
DAV: 274    -0.358439821533E+04   -0.43364E-04   -0.41639E-03  6400   0.366E-02    0.439E-01
DAV: 275    -0.358439772312E+04    0.49221E-03   -0.22659E-02  6656   0.716E-02    0.290E-01
DAV: 276    -0.358440052534E+04   -0.28022E-02   -0.31376E-03  5760   0.427E-02    0.645E-01
DAV: 277    -0.358440029515E+04    0.23019E-03   -0.53848E-04  6016   0.175E-02    0.530E-01
DAV: 278    -0.358440047866E+04   -0.18351E-03   -0.38014E-05  5632   0.822E-03    0.516E-01
DAV: 279    -0.358440055480E+04   -0.76136E-04   -0.35206E-04  6272   0.132E-02    0.366E-01
DAV: 280    -0.358440037486E+04    0.17994E-03   -0.58201E-03  6528   0.361E-02    0.216E-01
DAV: 281    -0.358439978502E+04    0.58984E-03   -0.77506E-03  6400   0.494E-02    0.223E-01
DAV: 282    -0.358440019137E+04   -0.40635E-03   -0.84112E-04  6016   0.206E-02    0.248E-01
DAV: 283    -0.358439996000E+04    0.23137E-03   -0.11030E-02  6656   0.572E-02    0.241E-01
DAV: 284    -0.358439991077E+04    0.49229E-04   -0.77915E-03  6528   0.324E-02    0.208E-01
DAV: 285    -0.358440028201E+04   -0.37124E-03   -0.10512E-02  6400   0.608E-02    0.207E-01
DAV: 286    -0.358440153995E+04   -0.12579E-02   -0.67440E-03  6272   0.432E-02    0.320E-01
DAV: 287    -0.358440101990E+04    0.52005E-03   -0.18042E-02  6272   0.517E-02    0.308E-01
DAV: 288    -0.358439973499E+04    0.12849E-02   -0.32656E-02  6528   0.659E-02    0.417E-01
DAV: 289    -0.358440170507E+04   -0.19701E-02   -0.84258E-03  6272   0.429E-02    0.633E-01
DAV: 290    -0.358440216258E+04   -0.45751E-03   -0.21488E-03  6144   0.252E-02    0.655E-01
DAV: 291    -0.358440117203E+04    0.99055E-03   -0.22951E-02  6272   0.728E-02    0.223E-01
DAV: 292    -0.358440096100E+04    0.21103E-03   -0.23499E-02  6528   0.815E-02    0.198E-01
DAV: 293    -0.358439981412E+04    0.11469E-02   -0.28174E-02  6656   0.666E-02    0.127E-01
DAV: 294    -0.358440159441E+04   -0.17803E-02   -0.91037E-03  6272   0.508E-02    0.519E-01
DAV: 295    -0.358440172522E+04   -0.13081E-03   -0.17584E-03  6016   0.276E-02    0.487E-01
DAV: 296    -0.358439961065E+04    0.21146E-02   -0.18992E-02  6528   0.641E-02    0.252E-01
DAV: 297    -0.358440113326E+04   -0.15226E-02   -0.37537E-03  6400   0.378E-02    0.175E-01
DAV: 298    -0.358440120895E+04   -0.75693E-04   -0.74165E-03  6400   0.279E-02    0.119E-01
DAV: 299    -0.358440213655E+04   -0.92760E-03   -0.84809E-03  6144   0.464E-02    0.500E-01
DAV: 300    -0.358440278274E+04   -0.64619E-03   -0.15296E-03  6016   0.296E-02    0.606E-01
DAV: 301    -0.358440178658E+04    0.99616E-03   -0.39441E-03  6272   0.418E-02    0.340E-01
DAV: 302    -0.358440210431E+04   -0.31773E-03   -0.21633E-03  6400   0.225E-02    0.335E-01
DAV: 303    -0.358440183705E+04    0.26726E-03   -0.44909E-03  6528   0.237E-02    0.331E-01
DAV: 304    -0.358440190229E+04   -0.65240E-04   -0.16817E-03  6272   0.149E-02    0.289E-01
DAV: 305    -0.358440182914E+04    0.73144E-04   -0.13391E-03  6528   0.125E-02    0.262E-01
DAV: 306    -0.358440226230E+04   -0.43315E-03   -0.53310E-03  6528   0.440E-02    0.237E-01
DAV: 307    -0.358440243348E+04   -0.17118E-03   -0.14267E-03  6144   0.252E-02    0.282E-01
DAV: 308    -0.358440248203E+04   -0.48550E-04   -0.35043E-04  6400   0.822E-03    0.324E-01
DAV: 309    -0.358440243609E+04    0.45940E-04   -0.61612E-05  5888   0.503E-03    0.322E-01
DAV: 310    -0.358440161705E+04    0.81903E-03   -0.59546E-03  6400   0.361E-02    0.239E-01
DAV: 311    -0.358439832311E+04    0.32939E-02   -0.39946E-02  6528   0.843E-02    0.435E-01
DAV: 312    -0.358440093722E+04   -0.26141E-02   -0.15787E-03  5632   0.484E-02    0.419E-01
DAV: 313    -0.358440080810E+04    0.12912E-03   -0.20284E-03  6400   0.286E-02    0.414E-01
DAV: 314    -0.358439999827E+04    0.80982E-03   -0.90185E-03  6656   0.396E-02    0.392E-01
DAV: 315    -0.358439712706E+04    0.28712E-02   -0.55616E-02  6528   0.862E-02    0.442E-01
DAV: 316    -0.358439919136E+04   -0.20643E-02   -0.12951E-02  6144   0.483E-02    0.327E-01
DAV: 317    -0.358440053683E+04   -0.13455E-02   -0.92243E-04  5760   0.252E-02    0.348E-01
DAV: 318    -0.358440062636E+04   -0.89526E-04   -0.83412E-04  6912   0.957E-03    0.335E-01
DAV: 319    -0.358440079244E+04   -0.16608E-03   -0.72628E-05  5632   0.770E-03    0.334E-01
DAV: 320    -0.358440080570E+04   -0.13258E-04   -0.65608E-06  4992   0.167E-03    0.338E-01
DAV: 321    -0.358440082308E+04   -0.17385E-04   -0.52813E-03  6400   0.281E-02    0.186E-01
DAV: 322    -0.358440153257E+04   -0.70948E-03   -0.12508E-03  6272   0.174E-02    0.394E-01
DAV: 323    -0.358440169647E+04   -0.16390E-03   -0.21187E-03  6272   0.178E-02    0.561E-01
DAV: 324    -0.358440176385E+04   -0.67382E-04   -0.54799E-04  6528   0.119E-02    0.608E-01
DAV: 325    -0.358440152185E+04    0.24200E-03   -0.17371E-04  6144   0.903E-03    0.597E-01
DAV: 326    -0.358440125659E+04    0.26526E-03   -0.30730E-03  6656   0.219E-02    0.643E-01
DAV: 327    -0.358440143510E+04   -0.17851E-03   -0.11116E-04  5632   0.935E-03    0.629E-01
DAV: 328    -0.358440118265E+04    0.25245E-03   -0.20901E-03  6272   0.134E-02    0.614E-01
DAV: 329    -0.358440129311E+04   -0.11046E-03   -0.24765E-04  6400   0.662E-03    0.600E-01
DAV: 330    -0.358440127884E+04    0.14272E-04   -0.13640E-03  6656   0.125E-02    0.555E-01
DAV: 331    -0.358440084001E+04    0.43882E-03   -0.62941E-03  6144   0.232E-02    0.465E-01
DAV: 332    -0.358440120333E+04   -0.36332E-03   -0.14392E-03  6272   0.160E-02    0.437E-01
DAV: 333    -0.358440140538E+04   -0.20205E-03   -0.14504E-03  6272   0.126E-02    0.426E-01
DAV: 334    -0.358440144855E+04   -0.43172E-04   -0.14210E-03  6016   0.205E-02    0.432E-01
DAV: 335    -0.358440134345E+04    0.10510E-03   -0.59294E-03  6272   0.334E-02    0.437E-01
DAV: 336    -0.358440006628E+04    0.12772E-02   -0.43630E-02  6528   0.808E-02    0.350E-01
DAV: 337    -0.358440217145E+04   -0.21052E-02   -0.10152E-03  5632   0.378E-02    0.342E-01
DAV: 338    -0.358440209842E+04    0.73031E-04   -0.40123E-04  6400   0.128E-02    0.339E-01
DAV: 339    -0.358440221032E+04   -0.11189E-03   -0.10959E-04  6272   0.608E-03    0.334E-01
DAV: 340    -0.358440232548E+04   -0.11516E-03   -0.25818E-04  6272   0.582E-03    0.332E-01
DAV: 341    -0.358440207199E+04    0.25349E-03   -0.27958E-03  6400   0.223E-02    0.256E-01
DAV: 342    -0.358440268097E+04   -0.60898E-03   -0.52311E-03  6528   0.361E-02    0.210E-01
DAV: 343    -0.358440317494E+04   -0.49397E-03   -0.68268E-04  6016   0.163E-02    0.182E-01
DAV: 344    -0.358440315974E+04    0.15207E-04   -0.38795E-03  6656   0.263E-02    0.177E-01
DAV: 345    -0.358440336786E+04   -0.20812E-03   -0.45837E-03  6528   0.261E-02    0.162E-01
DAV: 346    -0.358440409284E+04   -0.72499E-03   -0.12911E-02  6272   0.409E-02    0.274E-01
DAV: 347    -0.358440409133E+04    0.15151E-05   -0.98760E-03  6400   0.388E-02    0.134E-01
DAV: 348    -0.358440357379E+04    0.51754E-03   -0.35678E-02  6656   0.714E-02    0.207E-01
DAV: 349    -0.358440532514E+04   -0.17514E-02   -0.89567E-03  6272   0.429E-02    0.175E-01
DAV: 350    -0.358440601465E+04   -0.68951E-03   -0.42317E-04  5632   0.215E-02    0.177E-01
DAV: 351    -0.358440458726E+04    0.14274E-02   -0.18004E-02  6656   0.505E-02    0.245E-01
DAV: 352    -0.358440513584E+04   -0.54858E-03   -0.33138E-03  6144   0.303E-02    0.251E-01
DAV: 353    -0.358440500289E+04    0.13295E-03   -0.52031E-03  6528   0.262E-02    0.266E-01
DAV: 354    -0.358440545222E+04   -0.44932E-03   -0.13302E-03  6400   0.137E-02    0.266E-01
DAV: 355    -0.358440504434E+04    0.40788E-03   -0.97412E-03  6272   0.331E-02    0.275E-01
DAV: 356    -0.358438058671E+04    0.24458E-01   -0.62367E-01  6016   0.325E-01    0.853E-01
DAV: 357    -0.358440698428E+04   -0.26398E-01   -0.21049E-02  5120   0.154E-01    0.505E-01
DAV: 358    -0.358440840501E+04   -0.14207E-02   -0.11329E-03  5632   0.263E-02    0.408E-01
DAV: 359    -0.358440871166E+04   -0.30666E-03   -0.15407E-04  5888   0.811E-03    0.400E-01
DAV: 360    -0.358440873299E+04   -0.21332E-04   -0.23721E-03  6400   0.226E-02    0.445E-01
DAV: 361    -0.358440673940E+04    0.19936E-02   -0.47471E-02  5632   0.717E-02    0.722E-01
DAV: 362    -0.358440916049E+04   -0.24211E-02   -0.56408E-03  5248   0.473E-02    0.346E-01
DAV: 363    -0.358440985342E+04   -0.69293E-03   -0.62380E-03  6400   0.325E-02    0.255E-01
DAV: 364    -0.358440963985E+04    0.21357E-03   -0.22789E-02  6016   0.581E-02    0.215E-01
DAV: 365    -0.358441137777E+04   -0.17379E-02   -0.10744E-02  6528   0.372E-02    0.164E-01
DAV: 366    -0.358441229447E+04   -0.91670E-03   -0.16360E-02  6656   0.457E-02    0.329E-01
DAV: 367    -0.358441398072E+04   -0.16862E-02   -0.13118E-03  5632   0.322E-02    0.156E-01
DAV: 368    -0.358441279781E+04    0.11829E-02   -0.20097E-02  6016   0.657E-02    0.151E-01
DAV: 369    -0.358441151880E+04    0.12790E-02   -0.21589E-02  6272   0.463E-02    0.273E-01
DAV: 370    -0.358441072227E+04    0.79653E-03   -0.22233E-02  6272   0.454E-02    0.378E-01
DAV: 371    -0.358441065813E+04    0.64141E-04   -0.35825E-02  6272   0.771E-02    0.356E-01
DAV: 372    -0.358441121132E+04   -0.55319E-03   -0.10956E-02  5504   0.653E-02    0.388E-01
DAV: 373    -0.358441136639E+04   -0.15507E-03   -0.55274E-03  6144   0.298E-02    0.666E-01
DAV: 374    -0.358441150030E+04   -0.13392E-03   -0.37564E-04  5376   0.227E-02    0.649E-01
DAV: 375    -0.358441135043E+04    0.14987E-03   -0.14019E-03  6400   0.175E-02    0.740E-01
DAV: 376    -0.358441047084E+04    0.87959E-03   -0.13769E-02  6272   0.564E-02    0.262E-01
DAV: 377    -0.358441062025E+04   -0.14941E-03   -0.30995E-02  5760   0.883E-02    0.173E-01
DAV: 378    -0.358441025997E+04    0.36028E-03   -0.49752E-02  6144   0.825E-02    0.147E-01
DAV: 379    -0.358441396805E+04   -0.37081E-02   -0.40753E-03  5376   0.438E-02    0.180E-01
DAV: 380    -0.358441489886E+04   -0.93081E-03   -0.44263E-04  5632   0.242E-02    0.177E-01
DAV: 381    -0.358440678765E+04    0.81112E-02   -0.10888E-01  5632   0.161E-01    0.587E-01
DAV: 382    -0.358441245115E+04   -0.56635E-02   -0.65852E-03  5120   0.862E-02    0.447E-01
DAV: 383    -0.358441177919E+04    0.67195E-03   -0.95106E-03  6144   0.416E-02    0.317E-01
DAV: 384    -0.358441253673E+04   -0.75754E-03   -0.18917E-03  6016   0.345E-02    0.316E-01
DAV: 385    -0.358440915799E+04    0.33787E-02   -0.92532E-02  5760   0.132E-01    0.203E-01
DAV: 386    -0.358441023822E+04   -0.10802E-02   -0.79117E-02  6656   0.871E-02    0.583E-01
DAV: 387    -0.358441511184E+04   -0.48736E-02   -0.27614E-03  5376   0.603E-02    0.570E-01
DAV: 388    -0.358441546790E+04   -0.35606E-03   -0.12002E-04  5888   0.136E-02    0.568E-01
DAV: 389    -0.358441536549E+04    0.10241E-03   -0.46967E-04  6528   0.111E-02    0.505E-01
DAV: 390    -0.358441530831E+04    0.57182E-04   -0.93660E-04  6272   0.141E-02    0.533E-01
DAV: 391    -0.358441543002E+04   -0.12171E-03   -0.25382E-03  6400   0.255E-02    0.514E-01
DAV: 392    -0.358441479053E+04    0.63949E-03   -0.15505E-02  6400   0.565E-02    0.583E-01
DAV: 393    -0.358441630529E+04   -0.15148E-02   -0.48958E-04  5632   0.279E-02    0.584E-01
DAV: 394    -0.358441645579E+04   -0.15050E-03   -0.14368E-05  5888   0.505E-03    0.584E-01
DAV: 395    -0.358441644138E+04    0.14409E-04   -0.68944E-04  6400   0.121E-02    0.545E-01
DAV: 396    -0.358441613129E+04    0.31010E-03   -0.64950E-03  6272   0.340E-02    0.702E-01
DAV: 397    -0.358441646869E+04   -0.33741E-03   -0.45056E-04  6144   0.146E-02    0.736E-01
DAV: 398    -0.358441654396E+04   -0.75264E-04   -0.20439E-05  5632   0.568E-03    0.735E-01
DAV: 399    -0.358441649311E+04    0.50846E-04   -0.84387E-05  6528   0.559E-03    0.714E-01
DAV: 400    -0.358441657582E+04   -0.82709E-04   -0.32440E-05  6144   0.279E-03    0.707E-01
DAV: 401    -0.358441609011E+04    0.48571E-03   -0.65476E-03  6400   0.409E-02    0.750E-01
DAV: 402    -0.358441657196E+04   -0.48185E-03   -0.12206E-02  6272   0.632E-02    0.550E-01
DAV: 403    -0.358441661194E+04   -0.39985E-04   -0.40641E-03  6656   0.259E-02    0.513E-01
DAV: 404    -0.358441573327E+04    0.87868E-03   -0.14646E-02  6272   0.496E-02    0.427E-01
DAV: 405    -0.358441305373E+04    0.26795E-02   -0.31248E-02  6144   0.747E-02    0.435E-01
DAV: 406    -0.358441444622E+04   -0.13925E-02   -0.45906E-03  5504   0.425E-02    0.500E-01
DAV: 407    -0.358441446372E+04   -0.17498E-04   -0.17482E-03  6272   0.218E-02    0.502E-01
DAV: 408    -0.358441440995E+04    0.53766E-04   -0.95263E-04  6272   0.181E-02    0.476E-01
DAV: 409    -0.358441427836E+04    0.13159E-03   -0.40402E-04  6144   0.128E-02    0.480E-01
DAV: 410    -0.358441433736E+04   -0.58995E-04   -0.31503E-05  5632   0.616E-03    0.479E-01
DAV: 411    -0.358441354096E+04    0.79640E-03   -0.14329E-02  5760   0.526E-02    0.474E-01
DAV: 412    -0.358441489482E+04   -0.13539E-02   -0.32144E-04  5120   0.230E-02    0.484E-01
DAV: 413    -0.358441482461E+04    0.70209E-04   -0.31941E-04  6400   0.126E-02    0.382E-01
DAV: 414    -0.358441429451E+04    0.53010E-03   -0.30247E-03  6144   0.311E-02    0.250E-01
DAV: 415    -0.358441333485E+04    0.95966E-03   -0.21020E-02  5888   0.478E-02    0.400E-01
DAV: 416    -0.358440997138E+04    0.33635E-02   -0.69760E-02  5632   0.128E-01    0.548E-01
DAV: 417    -0.358441203618E+04   -0.20648E-02   -0.84089E-03  5632   0.624E-02    0.537E-01
DAV: 418    -0.358441187805E+04    0.15812E-03   -0.46157E-03  5888   0.298E-02    0.521E-01
DAV: 419    -0.358441210461E+04   -0.22656E-03   -0.20375E-04  5376   0.159E-02    0.520E-01
DAV: 420    -0.358441201015E+04    0.94464E-04   -0.21336E-04  6272   0.684E-03    0.526E-01
DAV: 421    -0.358441006451E+04    0.19456E-02   -0.42188E-02  5760   0.103E-01    0.264E-01
DAV: 422    -0.358441291950E+04   -0.28550E-02   -0.11707E-02  6016   0.578E-02    0.412E-01
DAV: 423    -0.358441395805E+04   -0.10386E-02   -0.10029E-03  5120   0.358E-02    0.356E-01
DAV: 424    -0.358441380069E+04    0.15736E-03   -0.11634E-03  6400   0.128E-02    0.276E-01
DAV: 425    -0.358441411160E+04   -0.31091E-03   -0.12589E-04  5888   0.794E-03    0.268E-01
DAV: 426    -0.358441409186E+04    0.19741E-04   -0.59160E-03  5888   0.309E-02    0.499E-01
DAV: 427    -0.358441357570E+04    0.51616E-03   -0.28403E-03  5760   0.359E-02    0.460E-01
DAV: 428    -0.358441352800E+04    0.47704E-04   -0.32414E-03  6016   0.240E-02    0.437E-01
DAV: 429    -0.358441425459E+04   -0.72659E-03   -0.11923E-03  6016   0.216E-02    0.445E-01
DAV: 430    -0.358441416457E+04    0.90027E-04   -0.73979E-04  6272   0.916E-03    0.385E-01
DAV: 431    -0.358440975079E+04    0.44138E-02   -0.15176E-01  5760   0.126E-01    0.218E-01
DAV: 432    -0.358441352805E+04   -0.37773E-02   -0.19966E-02  6016   0.518E-02    0.208E-01
DAV: 433    -0.358441455788E+04   -0.10298E-02   -0.75930E-03  6016   0.314E-02    0.225E-01
DAV: 434    -0.358441460356E+04   -0.45686E-04   -0.44976E-03  6144   0.194E-02    0.217E-01
DAV: 435    -0.358441454149E+04    0.62077E-04   -0.22386E-03  6016   0.142E-02    0.229E-01
DAV: 436    -0.358441065279E+04    0.38887E-02   -0.10862E-01  5632   0.106E-01    0.562E-01
DAV: 437    -0.358441385993E+04   -0.32071E-02   -0.19280E-03  5120   0.445E-02    0.575E-01
DAV: 438    -0.358441379511E+04    0.64819E-04   -0.91705E-04  6272   0.135E-02    0.644E-01
DAV: 439    -0.358441400415E+04   -0.20904E-03   -0.68588E-04  6016   0.139E-02    0.669E-01
DAV: 440    -0.358441397029E+04    0.33855E-04   -0.61855E-04  6272   0.779E-03    0.728E-01
DAV: 441    -0.358441297058E+04    0.99971E-03   -0.38335E-02  5888   0.622E-02    0.496E-01
DAV: 442    -0.358441388982E+04   -0.91924E-03   -0.63001E-03  5504   0.499E-02    0.540E-01
DAV: 443    -0.358441413102E+04   -0.24120E-03   -0.20767E-03  5760   0.330E-02    0.637E-01
DAV: 444    -0.358441403051E+04    0.10051E-03   -0.17438E-03  6272   0.189E-02    0.680E-01
DAV: 445    -0.358441418295E+04   -0.15244E-03   -0.21693E-04  6016   0.812E-03    0.662E-01
DAV: 446    -0.358441442123E+04   -0.23828E-03   -0.10896E-04  6144   0.769E-03    0.725E-01
DAV: 447    -0.358441431274E+04    0.10849E-03   -0.20652E-03  6016   0.222E-02    0.871E-01
DAV: 448    -0.358441398464E+04    0.32810E-03   -0.86077E-05  5248   0.116E-02    0.874E-01
DAV: 449    -0.358441378252E+04    0.20212E-03   -0.40614E-04  6400   0.859E-03    0.839E-01
DAV: 450    -0.358441343514E+04    0.34738E-03   -0.33230E-03  6272   0.227E-02    0.685E-01
DAV: 451    -0.358441227172E+04    0.11634E-02   -0.22480E-02  5888   0.532E-02    0.380E-01
DAV: 452    -0.358441210904E+04    0.16268E-03   -0.20600E-02  6016   0.628E-02    0.395E-01
DAV: 453    -0.358441238789E+04   -0.27885E-03   -0.19630E-03  5504   0.363E-02    0.314E-01
DAV: 454    -0.358441232795E+04    0.59935E-04   -0.14421E-04  5632   0.131E-02    0.304E-01
DAV: 455    -0.358441224668E+04    0.81270E-04   -0.29094E-04  6144   0.956E-03    0.343E-01
DAV: 456    -0.358439906589E+04    0.13181E-01   -0.26993E-01  6272   0.243E-01    0.892E-01
DAV: 457    -0.358440831825E+04   -0.92524E-02   -0.92035E-03  5120   0.100E-01    0.806E-01
DAV: 458    -0.358440812446E+04    0.19379E-03   -0.15983E-03  5888   0.320E-02    0.915E-01
DAV: 459    -0.358440747585E+04    0.64861E-03   -0.63770E-03  5888   0.337E-02    0.711E-01
DAV: 460    -0.358440778127E+04   -0.30542E-03   -0.66635E-03  6016   0.380E-02    0.731E-01
DAV: 461    -0.358440916807E+04   -0.13868E-02   -0.15610E-02  5888   0.549E-02    0.115E+00
DAV: 462    -0.358440938823E+04   -0.22016E-03   -0.38292E-03  5504   0.497E-02    0.106E+00
DAV: 463    -0.358440940124E+04   -0.13016E-04   -0.50795E-04  6016   0.138E-02    0.103E+00
DAV: 464    -0.358440929191E+04    0.10933E-03   -0.60660E-04  6016   0.785E-03    0.957E-01
DAV: 465    -0.358440934783E+04   -0.55918E-04   -0.21162E-03  6016   0.178E-02    0.912E-01
DAV: 466    -0.358440792964E+04    0.14182E-02   -0.26692E-02  5760   0.656E-02    0.267E-01
DAV: 467    -0.358440974200E+04   -0.18124E-02   -0.13032E-02  5888   0.682E-02    0.183E-01
DAV: 468    -0.358441058717E+04   -0.84517E-03   -0.12563E-03  5760   0.266E-02    0.231E-01
DAV: 469    -0.358440996207E+04    0.62509E-03   -0.53473E-03  5760   0.423E-02    0.148E-01
DAV: 470    -0.358441030888E+04   -0.34681E-03   -0.38799E-03  6400   0.306E-02    0.189E-01
DAV: 471    -0.358441120903E+04   -0.90014E-03   -0.12579E-02  5760   0.510E-02    0.164E-01
DAV: 472    -0.358441126387E+04   -0.54840E-04   -0.11933E-02  6016   0.491E-02    0.197E-01
DAV: 473    -0.358441286477E+04   -0.16009E-02   -0.29661E-03  5760   0.290E-02    0.271E-01
DAV: 474    -0.358441353100E+04   -0.66622E-03   -0.88903E-04  5888   0.171E-02    0.286E-01
DAV: 475    -0.358441382272E+04   -0.29172E-03   -0.22509E-04  5248   0.154E-02    0.278E-01
DAV: 476    -0.358441338298E+04    0.43974E-03   -0.69275E-03  6144   0.331E-02    0.154E-01
DAV: 477    -0.358441287683E+04    0.50615E-03   -0.14185E-02  5760   0.525E-02    0.149E-01
DAV: 478    -0.358441463071E+04   -0.17539E-02   -0.12132E-03  5248   0.341E-02    0.149E-01
DAV: 479    -0.358441465311E+04   -0.22400E-04   -0.10672E-04  6144   0.559E-03    0.144E-01
DAV: 480    -0.358441423642E+04    0.41670E-03   -0.50087E-03  5888   0.287E-02    0.138E-01
DAV: 481    -0.358441485274E+04   -0.61632E-03   -0.73356E-03  5760   0.490E-02    0.141E-01
DAV: 482    -0.358441395607E+04    0.89667E-03   -0.13067E-02  5888   0.553E-02    0.192E-01
DAV: 483    -0.358441353786E+04    0.41821E-03   -0.26981E-03  5888   0.271E-02    0.193E-01
DAV: 484    -0.358441173971E+04    0.17981E-02   -0.18297E-02  6016   0.532E-02    0.204E-01
DAV: 485    -0.358440978651E+04    0.19532E-02   -0.22316E-02  6400   0.538E-02    0.262E-01
DAV: 486    -0.358440916439E+04    0.62212E-03   -0.17498E-02  5760   0.554E-02    0.202E-01
DAV: 487    -0.358440965167E+04   -0.48729E-03   -0.30207E-03  5888   0.292E-02    0.193E-01
DAV: 488    -0.358440953348E+04    0.11819E-03   -0.37222E-04  5632   0.139E-02    0.191E-01
DAV: 489    -0.358440941380E+04    0.11969E-03   -0.83581E-04  6400   0.894E-03    0.188E-01
DAV: 490    -0.358440920375E+04    0.21004E-03   -0.16168E-03  6272   0.130E-02    0.189E-01
DAV: 491    -0.358431260173E+04    0.96602E-01   -0.31676E+00  5888   0.708E-01    0.144E+00
DAV: 492    -0.358440971564E+04   -0.97114E-01   -0.72090E-02  5120   0.251E-01    0.143E+00
DAV: 493    -0.358441982045E+04   -0.10105E-01   -0.26633E-02  5504   0.127E-01    0.137E+00
DAV: 494    -0.358441603187E+04    0.37886E-02   -0.36123E-02  6400   0.876E-02    0.127E+00
DAV: 495    -0.358441763301E+04   -0.16011E-02   -0.37597E-03  5632   0.423E-02    0.125E+00
DAV: 496    -0.358441799871E+04   -0.36571E-03   -0.25636E-03  6272   0.382E-02    0.125E+00
DAV: 497    -0.358441828110E+04   -0.28239E-03   -0.23140E-04  5760   0.142E-02    0.124E+00
DAV: 498    -0.358441838791E+04   -0.10681E-03   -0.19303E-04  6272   0.792E-03    0.125E+00
DAV: 499    -0.358441820477E+04    0.18315E-03   -0.19750E-03  6400   0.209E-02    0.128E+00
DAV: 500    -0.358441776157E+04    0.44320E-03   -0.40032E-03  6528   0.246E-02
 -----------------------------------------------------------------------------
|                                                                             |
|           W    W    AA    RRRRR   N    N  II  N    N   GGGG   !!!           |
|           W    W   A  A   R    R  NN   N  II  NN   N  G    G  !!!           |
|           W    W  A    A  R    R  N N  N  II  N N  N  G       !!!           |
|           W WW W  AAAAAA  RRRRR   N  N N  II  N  N N  G  GGG   !            |
|           WW  WW  A    A  R   R   N   NN  II  N   NN  G    G                |
|           W    W  A    A  R    R  N    N  II  N    N   GGGG   !!!           |
|                                                                             |
|     The electronic self-consistency was not achieved in the given           |
|     number of steps (NELM). The forces and other quantities evaluated       |
|     might not be reliable so examine the results carefully. If you find     |
|     spurious results, we suggest increasing NELM, if you were close to      |
|     convergence or switching to a different ALGO or adjusting the           |
|     density mixing parameters otherwise.                                    |
|                                                                             |
 -----------------------------------------------------------------------------

 augmentation electrons   1804.87622902023     
 soft         electrons  0.000000000000000E+000
 total        electrons   1804.87622902023     
 augmentation electrons -3.114258782859891E-002
 soft         electrons  0.000000000000000E+000
 total        electrons -3.114258782859891E-002
 augmentation electrons   1897.59959528426     
 soft         electrons  0.000000000000000E+000
 total        electrons   1897.59959528426     
 augmentation electrons   1840.97656334226     
 soft         electrons  0.000000000000000E+000
 total        electrons   1840.97656334226     
 augmentation electrons   56.1104569531296     
 soft         electrons   1748.76568412400     
 total        electrons   1804.87614107713     
 augmentation electrons   14.7925067354357     
 soft         electrons   1748.76568412400     
 total        electrons   22.9688349202951     
 translations:           0           1           0
   1 F= -.36220496E+04 E0= -.36220411E+04  d E =-.362205E+04  mag=    23.0000
 curvature:   0.00 expect dE= 0.000E+00 dE for cont linesearch  0.000E+00
 trial: gam= 0.00000 g(F)=  0.338E+00 g(S)=  0.000E+00 ort = 0.000E+00 (trialstep = 0.100E+01)
 search vector abs. value=  0.338E+00
 bond charge predicted
       N       E                     dE             d eps       ncg     rms          rms(c)
DAV:   1    -0.358709475104E+04   -0.26765E+01   -0.46111E+01  6400   0.453E+00    0.124E+01
DAV:   2    -0.358733079472E+04   -0.23604E+00   -0.13662E+01  6528   0.545E+00    0.155E+01
DAV:   3    -0.358658267763E+04    0.74812E+00   -0.33039E+00  6400   0.193E+00    0.753E+00
DAV:   4    -0.358759046668E+04   -0.10078E+01   -0.17718E+01  6400   0.135E+00    0.123E+01
DAV:   5    -0.358665166231E+04    0.93880E+00   -0.10448E+01  5888   0.110E+00    0.614E+00
DAV:   6    -0.358734836793E+04   -0.69671E+00   -0.26691E+00  5888   0.353E-01    0.784E+00
DAV:   7    -0.358631913706E+04    0.10292E+01   -0.26960E+00  5760   0.369E-01    0.598E+00
DAV:   8    -0.358590061315E+04    0.41852E+00   -0.72846E+00  5376   0.619E-01    0.429E+00
DAV:   9    -0.358604769143E+04   -0.14708E+00   -0.19032E-01  5888   0.443E-01    0.349E+00
DAV:  10    -0.358622642220E+04   -0.17873E+00   -0.20704E-01  5632   0.339E-01    0.308E+00
DAV:  11    -0.358643818264E+04   -0.21176E+00   -0.13266E+00  5760   0.389E-01    0.622E+00
DAV:  12    -0.358644662407E+04   -0.84414E-02   -0.30892E+00  5376   0.326E-01    0.257E+00
DAV:  13    -0.358647508264E+04   -0.28459E-01   -0.85273E-02  5376   0.198E-01    0.250E+00
DAV:  14    -0.358646844251E+04    0.66401E-02   -0.77292E-01  5760   0.130E-01    0.588E+00
DAV:  15    -0.358643812417E+04    0.30318E-01   -0.10744E+00  5760   0.179E-01    0.246E+00
DAV:  16    -0.358643833612E+04   -0.21195E-03   -0.24433E-02  5632   0.129E-01    0.154E+00
DAV:  17    -0.358644420697E+04   -0.58708E-02   -0.45863E-02  5888   0.776E-02    0.348E+00
DAV:  18    -0.358642491532E+04    0.19292E-01   -0.83728E-03  6016   0.106E-01    0.294E+00
DAV:  19    -0.358641097328E+04    0.13942E-01   -0.14167E-02  6400   0.135E-01    0.357E+00
DAV:  20    -0.358639078476E+04    0.20189E-01   -0.99800E-03  6400   0.122E-01    0.377E+00
DAV:  21    -0.358638598475E+04    0.48000E-02   -0.29302E-03  5760   0.420E-02    0.386E+00
DAV:  22    -0.358638435323E+04    0.16315E-02   -0.10736E-04  6400   0.847E-03    0.387E+00
DAV:  23    -0.358638145983E+04    0.28934E-02   -0.33255E-05  5632   0.551E-03    0.356E+00
DAV:  24    -0.358638521468E+04   -0.37548E-02   -0.19853E-04  6400   0.160E-02    0.351E+00
DAV:  25    -0.358639014220E+04   -0.49275E-02   -0.17075E-04  6528   0.180E-02    0.371E+00
DAV:  26    -0.358638899395E+04    0.11483E-02   -0.93127E-05  6016   0.676E-03    0.362E+00
DAV:  27    -0.358640180070E+04   -0.12807E-01   -0.85146E-03  6144   0.127E-01    0.272E+00
DAV:  28    -0.358642695427E+04   -0.25154E-01   -0.48892E-02  6528   0.213E-01    0.167E+00
DAV:  29    -0.358644129981E+04   -0.14346E-01   -0.99139E-03  6016   0.770E-02    0.656E-01
DAV:  30    -0.358644924941E+04   -0.79496E-02   -0.38553E-03  5888   0.552E-02    0.728E-01
DAV:  31    -0.358645351510E+04   -0.42657E-02   -0.43986E-03  6144   0.626E-02    0.603E-01
DAV:  32    -0.358645828427E+04   -0.47692E-02   -0.18935E-02  6400   0.113E-01    0.688E-01
DAV:  33    -0.358646330566E+04   -0.50214E-02   -0.98969E-03  6400   0.801E-02    0.124E+00
DAV:  34    -0.358646567721E+04   -0.23716E-02   -0.97698E-03  6400   0.605E-02    0.157E+00
DAV:  35    -0.358646647041E+04   -0.79319E-03   -0.13945E-02  6400   0.571E-02    0.175E+00
DAV:  36    -0.358646935880E+04   -0.28884E-02   -0.60806E-03  6272   0.376E-02    0.190E+00
DAV:  37    -0.358646880664E+04    0.55216E-03   -0.79754E-04  5632   0.285E-02    0.186E+00
DAV:  38    -0.358646774997E+04    0.10567E-02   -0.40317E-03  6400   0.385E-02    0.177E+00
DAV:  39    -0.358646636694E+04    0.13830E-02   -0.30705E-03  6656   0.235E-02    0.169E+00
DAV:  40    -0.358646639900E+04   -0.32052E-04   -0.52761E-03  6656   0.354E-02    0.168E+00
DAV:  41    -0.358646549545E+04    0.90355E-03   -0.12372E-02  6656   0.429E-02    0.168E+00
DAV:  42    -0.358646500382E+04    0.49163E-03   -0.12400E-02  6400   0.492E-02    0.164E+00
DAV:  43    -0.358646545444E+04   -0.45062E-03   -0.28961E-02  6400   0.877E-02    0.166E+00
DAV:  44    -0.358646689541E+04   -0.14410E-02   -0.19258E-02  6400   0.584E-02    0.164E+00
DAV:  45    -0.358646771338E+04   -0.81797E-03   -0.17812E-03  6272   0.311E-02    0.159E+00
DAV:  46    -0.358646771814E+04   -0.47585E-05   -0.11674E-04  5760   0.118E-02    0.157E+00
DAV:  47    -0.358646732151E+04    0.39663E-03   -0.47530E-03  6400   0.259E-02    0.153E+00
DAV:  48    -0.358646764425E+04   -0.32274E-03   -0.31151E-03  6144   0.261E-02    0.159E+00
DAV:  49    -0.358646673851E+04    0.90574E-03   -0.35758E-03  6144   0.184E-02    0.157E+00
DAV:  50    -0.358646492099E+04    0.18175E-02   -0.75304E-03  6272   0.526E-02    0.128E+00
DAV:  51    -0.358646471528E+04    0.20570E-03   -0.90018E-03  6400   0.723E-02    0.613E-01
DAV:  52    -0.358646783137E+04   -0.31161E-02   -0.11257E-02  6272   0.644E-02    0.667E-01
DAV:  53    -0.358646802590E+04   -0.19453E-03   -0.21619E-03  5888   0.392E-02    0.507E-01
DAV:  54    -0.358646865934E+04   -0.63343E-03   -0.76077E-03  6400   0.377E-02    0.654E-01
DAV:  55    -0.358646846531E+04    0.19403E-03   -0.28503E-02  6528   0.579E-02    0.563E-01
DAV:  56    -0.358646976794E+04   -0.13026E-02   -0.11705E-02  6400   0.350E-02    0.558E-01
DAV:  57    -0.358647003988E+04   -0.27194E-03   -0.28102E-03  5760   0.400E-02    0.940E-01
DAV:  58    -0.358647017527E+04   -0.13539E-03   -0.60262E-03  6400   0.332E-02    0.120E+00
DAV:  59    -0.358646801475E+04    0.21605E-02   -0.36439E-02  6400   0.924E-02    0.387E-01
DAV:  60    -0.358647197833E+04   -0.39636E-02   -0.74127E-03  6144   0.499E-02    0.640E-01
DAV:  61    -0.358647263633E+04   -0.65799E-03   -0.20020E-03  6400   0.295E-02    0.446E-01
DAV:  62    -0.358647339850E+04   -0.76217E-03   -0.23348E-03  6144   0.263E-02    0.470E-01
DAV:  63    -0.358647364586E+04   -0.24736E-03   -0.69484E-03  6272   0.380E-02    0.468E-01
DAV:  64    -0.358647410487E+04   -0.45901E-03   -0.35550E-03  6528   0.248E-02    0.571E-01
DAV:  65    -0.358647417350E+04   -0.68628E-04   -0.19496E-04  5632   0.178E-02    0.571E-01
DAV:  66    -0.358647413700E+04    0.36499E-04   -0.31489E-05  6272   0.453E-03    0.568E-01
DAV:  67    -0.358647409850E+04    0.38503E-04   -0.25792E-03  6272   0.184E-02    0.583E-01
DAV:  68    -0.358647415517E+04   -0.56673E-04   -0.77004E-05  5632   0.623E-03    0.597E-01
DAV:  69    -0.358647410321E+04    0.51959E-04   -0.12643E-04  6144   0.446E-03    0.635E-01
DAV:  70    -0.358647393105E+04    0.17216E-03   -0.59057E-05  6272   0.396E-03    0.631E-01
DAV:  71    -0.358647382561E+04    0.10544E-03   -0.14610E-04  6144   0.565E-03    0.655E-01
DAV:  72    -0.358647351643E+04    0.30917E-03   -0.14308E-03  6528   0.181E-02    0.654E-01
DAV:  73    -0.358647374830E+04   -0.23187E-03   -0.16318E-04  6016   0.121E-02    0.678E-01
DAV:  74    -0.358647382568E+04   -0.77376E-04   -0.88455E-03  6784   0.380E-02    0.593E-01
DAV:  75    -0.358647461467E+04   -0.78899E-03   -0.64227E-03  6656   0.299E-02    0.730E-01
DAV:  76    -0.358647493770E+04   -0.32303E-03   -0.38530E-04  5632   0.193E-02    0.788E-01
DAV:  77    -0.358647454284E+04    0.39486E-03   -0.46835E-03  6400   0.350E-02    0.902E-01
DAV:  78    -0.358647427372E+04    0.26912E-03   -0.43734E-04  6272   0.136E-02    0.857E-01
DAV:  79    -0.358647393768E+04    0.33604E-03   -0.10805E-03  6144   0.141E-02    0.798E-01
DAV:  80    -0.358647439524E+04   -0.45756E-03   -0.67998E-04  6272   0.215E-02    0.788E-01
DAV:  81    -0.358647442689E+04   -0.31652E-04   -0.62392E-03  6272   0.410E-02    0.814E-01
DAV:  82    -0.358647356273E+04    0.86416E-03   -0.12442E-02  6400   0.705E-02    0.518E-01
DAV:  83    -0.358647488505E+04   -0.13223E-02   -0.77976E-04  6144   0.272E-02    0.567E-01
DAV:  84    -0.358647483907E+04    0.45980E-04   -0.16677E-04  6400   0.684E-03    0.597E-01
DAV:  85    -0.358647477651E+04    0.62555E-04   -0.41058E-05  5888   0.287E-03    0.609E-01
DAV:  86    -0.358647451870E+04    0.25781E-03   -0.42240E-04  6272   0.886E-03    0.583E-01
DAV:  87    -0.358647467981E+04   -0.16111E-03   -0.65820E-03  6272   0.381E-02    0.218E-01
DAV:  88    -0.358647577607E+04   -0.10963E-02   -0.96833E-04  6144   0.194E-02    0.269E-01
DAV:  89    -0.358647629203E+04   -0.51596E-03   -0.17463E-03  6400   0.176E-02    0.345E-01
DAV:  90    -0.358647658571E+04   -0.29368E-03   -0.95225E-03  6528   0.401E-02    0.307E-01
DAV:  91    -0.358647679135E+04   -0.20563E-03   -0.18619E-02  6528   0.563E-02    0.226E-01
DAV:  92    -0.358647654814E+04    0.24320E-03   -0.54121E-02  6528   0.840E-02    0.235E-01
DAV:  93    -0.358648029768E+04   -0.37495E-02   -0.34812E-03  5120   0.655E-02    0.196E-01
DAV:  94    -0.358648030253E+04   -0.48504E-05   -0.37237E-04  6272   0.106E-02    0.190E-01
DAV:  95    -0.358648011787E+04    0.18466E-03   -0.13578E-03  6272   0.161E-02    0.171E-01
DAV:  96    -0.358648016622E+04   -0.48351E-04   -0.20485E-05  5632   0.562E-03    0.170E-01
DAV:  97    -0.358648020928E+04   -0.43064E-04   -0.31324E-03  6400   0.144E-02    0.258E-01
DAV:  98    -0.358648023313E+04   -0.23845E-04   -0.28145E-04  6016   0.587E-03    0.260E-01
DAV:  99    -0.358648029218E+04   -0.59054E-04   -0.38375E-03  6528   0.252E-02    0.279E-01
DAV: 100    -0.358648041065E+04   -0.11847E-03   -0.89076E-05  5632   0.109E-02    0.277E-01
DAV: 101    -0.358648052344E+04   -0.11279E-03   -0.14822E-03  6528   0.170E-02    0.266E-01
DAV: 102    -0.358648032552E+04    0.19792E-03   -0.70522E-03  6400   0.425E-02    0.264E-01
DAV: 103    -0.358647781781E+04    0.25077E-02   -0.78028E-02  6016   0.949E-02    0.397E-01
DAV: 104    -0.358648033613E+04   -0.25183E-02   -0.20558E-02  6400   0.477E-02    0.519E-01
DAV: 105    -0.358648169416E+04   -0.13580E-02   -0.64370E-04  5504   0.261E-02    0.526E-01
DAV: 106    -0.358648186498E+04   -0.17082E-03   -0.53531E-05  6016   0.601E-03    0.531E-01
DAV: 107    -0.358648114024E+04    0.72474E-03   -0.32871E-02  6400   0.608E-02    0.874E-01
DAV: 108    -0.358648149842E+04   -0.35818E-03   -0.64627E-04  5376   0.293E-02    0.875E-01
DAV: 109    -0.358648143249E+04    0.65926E-04   -0.92208E-05  6400   0.631E-03    0.874E-01
DAV: 110    -0.358648114724E+04    0.28525E-03   -0.10692E-03  6272   0.160E-02    0.867E-01
DAV: 111    -0.358647922561E+04    0.19216E-02   -0.16357E-02  6016   0.458E-02    0.794E-01
DAV: 112    -0.358646747598E+04    0.11750E-01   -0.24503E-01  6016   0.192E-01    0.184E-01
DAV: 113    -0.358647734688E+04   -0.98709E-02   -0.62448E-03  5120   0.859E-02    0.145E-01
DAV: 114    -0.358647709628E+04    0.25060E-03   -0.18088E-03  6400   0.238E-02    0.144E-01
DAV: 115    -0.358647622929E+04    0.86699E-03   -0.55751E-03  6272   0.300E-02    0.163E-01
DAV: 116    -0.358647305401E+04    0.31753E-02   -0.26178E-02  5888   0.770E-02    0.156E-01
DAV: 117    -0.358647208738E+04    0.96663E-03   -0.28125E-02  6272   0.638E-02    0.150E-01
DAV: 118    -0.358647318668E+04   -0.10993E-02   -0.55451E-03  5632   0.440E-02    0.156E-01
DAV: 119    -0.358647319994E+04   -0.13261E-04   -0.14078E-03  6400   0.125E-02    0.164E-01
DAV: 120    -0.358647322519E+04   -0.25241E-04   -0.99805E-05  5632   0.929E-03    0.162E-01
DAV: 121    -0.358647325914E+04   -0.33957E-04   -0.88636E-05  6272   0.291E-03    0.167E-01
DAV: 122    -0.358647232692E+04    0.93222E-03   -0.23147E-02  6528   0.516E-02    0.231E-01
DAV: 123    -0.358647258592E+04   -0.25900E-03   -0.14824E-03  6144   0.177E-02    0.249E-01
DAV: 124    -0.358647253283E+04    0.53090E-04   -0.20269E-03  6272   0.163E-02    0.288E-01
DAV: 125    -0.358647249261E+04    0.40222E-04   -0.10586E-03  6272   0.125E-02    0.290E-01
DAV: 126    -0.358647263073E+04   -0.13812E-03   -0.10409E-02  6144   0.475E-02    0.358E-01
DAV: 127    -0.358647321710E+04   -0.58637E-03   -0.22291E-02  6272   0.444E-02    0.268E-01
DAV: 128    -0.358647347879E+04   -0.26169E-03   -0.91739E-03  6144   0.413E-02    0.337E-01
DAV: 129    -0.358647403782E+04   -0.55903E-03   -0.97128E-04  6016   0.177E-02    0.306E-01
DAV: 130    -0.358647413597E+04   -0.98149E-04   -0.32500E-05  5632   0.690E-03    0.307E-01
DAV: 131    -0.358647407132E+04    0.64651E-04   -0.27641E-04  6144   0.629E-03    0.326E-01
DAV: 132    -0.358647395924E+04    0.11207E-03   -0.10337E-03  6784   0.123E-02    0.284E-01
DAV: 133    -0.358647378932E+04    0.16992E-03   -0.77856E-04  6400   0.146E-02    0.286E-01
DAV: 134    -0.358647383529E+04   -0.45965E-04   -0.26335E-04  6528   0.670E-03    0.288E-01
DAV: 135    -0.358647392997E+04   -0.94682E-04   -0.29510E-05  5888   0.600E-03    0.288E-01
DAV: 136    -0.358647393780E+04   -0.78310E-05   -0.72255E-05  6400   0.470E-03    0.284E-01
DAV: 137    -0.358647388860E+04    0.49205E-04   -0.80480E-03  6400   0.256E-02    0.351E-01
DAV: 138    -0.358647393903E+04   -0.50432E-04   -0.31887E-03  6016   0.339E-02    0.325E-01
DAV: 139    -0.358647427389E+04   -0.33486E-03   -0.31556E-04  5760   0.155E-02    0.341E-01
DAV: 140    -0.358647423466E+04    0.39231E-04   -0.14541E-03  6400   0.159E-02    0.356E-01
DAV: 141    -0.358647418461E+04    0.50053E-04   -0.23757E-03  6656   0.203E-02    0.371E-01
DAV: 142    -0.358646444367E+04    0.97409E-02   -0.31868E-01  6016   0.232E-01    0.214E-01
DAV: 143    -0.358647210526E+04   -0.76616E-02   -0.39017E-02  5760   0.100E-01    0.141E-01
DAV: 144    -0.358647313266E+04   -0.10274E-02   -0.39040E-02  6272   0.772E-02    0.176E-01
DAV: 145    -0.358647998570E+04   -0.68530E-02   -0.32887E-03  5120   0.661E-02    0.156E-01
DAV: 146    -0.358648054239E+04   -0.55669E-03   -0.17982E-04  6528   0.121E-02    0.159E-01
DAV: 147    -0.358647932837E+04    0.12140E-02   -0.22854E-02  6144   0.594E-02    0.372E-01
DAV: 148    -0.358648068307E+04   -0.13547E-02   -0.11023E-03  5376   0.289E-02    0.379E-01
DAV: 149    -0.358648068561E+04   -0.25334E-05   -0.84580E-04  6912   0.108E-02    0.398E-01
DAV: 150    -0.358648088917E+04   -0.20357E-03   -0.45767E-05  5632   0.591E-03    0.401E-01
DAV: 151    -0.358648076372E+04    0.12545E-03   -0.14697E-03  6400   0.119E-02    0.364E-01
DAV: 152    -0.358647933401E+04    0.14297E-02   -0.13793E-02  6016   0.435E-02    0.171E-01
DAV: 153    -0.358647792220E+04    0.14118E-02   -0.28624E-02  5760   0.107E-01    0.300E-01
DAV: 154    -0.358647941777E+04   -0.14956E-02   -0.15958E-03  5376   0.512E-02    0.305E-01
DAV: 155    -0.358647908808E+04    0.32969E-03   -0.12175E-04  5888   0.132E-02    0.305E-01
DAV: 156    -0.358647897245E+04    0.11563E-03   -0.66723E-04  6272   0.114E-02    0.319E-01
DAV: 157    -0.358647813767E+04    0.83478E-03   -0.17315E-02  5632   0.488E-02    0.288E-01
DAV: 158    -0.358647803935E+04    0.98325E-04   -0.52683E-03  5760   0.313E-02    0.267E-01
DAV: 159    -0.358647836874E+04   -0.32939E-03   -0.34917E-03  5888   0.365E-02    0.354E-01
DAV: 160    -0.358647772828E+04    0.64046E-03   -0.28378E-04  5376   0.178E-02    0.351E-01
DAV: 161    -0.358647733365E+04    0.39463E-03   -0.25152E-05  5632   0.734E-03    0.349E-01
DAV: 162    -0.358647705477E+04    0.27888E-03   -0.18566E-03  6144   0.158E-02    0.264E-01
DAV: 163    -0.358647755699E+04   -0.50223E-03   -0.63176E-04  6272   0.154E-02    0.317E-01
DAV: 164    -0.358647729079E+04    0.26621E-03   -0.95203E-05  5888   0.680E-03    0.318E-01
DAV: 165    -0.358647756094E+04   -0.27016E-03   -0.25634E-03  6400   0.228E-02    0.325E-01
DAV: 166    -0.358647732927E+04    0.23167E-03   -0.80005E-03  6272   0.219E-02    0.240E-01
DAV: 167    -0.358647465003E+04    0.26792E-02   -0.20549E-02  5888   0.784E-02    0.204E-01
DAV: 168    -0.358647811502E+04   -0.34650E-02   -0.75100E-04  5120   0.334E-02    0.198E-01
DAV: 169    -0.358647841823E+04   -0.30321E-03   -0.44478E-04  5760   0.137E-02    0.195E-01
DAV: 170    -0.358647826581E+04    0.15242E-03   -0.51755E-05  5888   0.739E-03    0.194E-01
DAV: 171    -0.358647785530E+04    0.41051E-03   -0.13760E-03  5888   0.207E-02    0.179E-01
DAV: 172    -0.358647534255E+04    0.25128E-02   -0.12778E-02  5760   0.611E-02    0.152E-01
DAV: 173    -0.358647950098E+04   -0.41584E-02   -0.14595E-03  5376   0.385E-02    0.158E-01
DAV: 174    -0.358647997822E+04   -0.47724E-03   -0.82646E-04  6016   0.142E-02    0.165E-01
DAV: 175    -0.358647978710E+04    0.19112E-03   -0.21927E-03  6400   0.113E-02    0.162E-01
DAV: 176    -0.358647986538E+04   -0.78280E-04   -0.12610E-03  5888   0.146E-02    0.159E-01
DAV: 177    -0.358647824807E+04    0.16173E-02   -0.33238E-02  6144   0.918E-02    0.356E-01
DAV: 178    -0.358647904500E+04   -0.79692E-03   -0.74917E-03  5888   0.511E-02    0.335E-01
DAV: 179    -0.358647913559E+04   -0.90596E-04   -0.19167E-02  6272   0.322E-02    0.429E-01
DAV: 180    -0.358647996871E+04   -0.83312E-03   -0.11331E-03  5376   0.188E-02    0.460E-01
DAV: 181    -0.358648001405E+04   -0.45341E-04   -0.79762E-04  5888   0.158E-02    0.446E-01
DAV: 182    -0.358648006589E+04   -0.51839E-04   -0.59133E-04  6272   0.852E-03    0.472E-01
DAV: 183    -0.358648005834E+04    0.75537E-05   -0.43543E-05  6272   0.564E-03    0.475E-01
DAV: 184    -0.358647994493E+04    0.11340E-03   -0.15430E-04  6528   0.792E-03    0.480E-01
DAV: 185    -0.358648001359E+04   -0.68653E-04   -0.41765E-05  6144   0.259E-03    0.483E-01
DAV: 186    -0.358648006239E+04   -0.48800E-04   -0.35102E-05  6272   0.345E-03    0.478E-01
DAV: 187    -0.358647980565E+04    0.25673E-03   -0.32182E-01  6016   0.164E-01    0.144E+00
DAV: 188    -0.358648571534E+04   -0.59097E-02   -0.10254E-02  5248   0.854E-02    0.151E+00
DAV: 189    -0.358648719608E+04   -0.14807E-02   -0.29281E-02  6784   0.414E-02    0.168E+00
DAV: 190    -0.358648628477E+04    0.91131E-03   -0.68072E-03  5888   0.388E-02    0.163E+00
DAV: 191    -0.358648643738E+04   -0.15261E-03   -0.12156E-04  5760   0.711E-03    0.163E+00
DAV: 192    -0.358648665003E+04   -0.21264E-03   -0.96523E-04  6528   0.122E-02    0.165E+00
DAV: 193    -0.358648627863E+04    0.37140E-03   -0.16659E-03  6528   0.128E-02    0.163E+00
DAV: 194    -0.358648623638E+04    0.42250E-04   -0.22294E-04  6144   0.491E-03    0.163E+00
DAV: 195    -0.358648478839E+04    0.14480E-02   -0.83840E-03  6400   0.276E-02    0.157E+00
DAV: 196    -0.358648302940E+04    0.17590E-02   -0.17245E-02  6784   0.324E-02    0.146E+00
DAV: 197    -0.358647436128E+04    0.86681E-02   -0.17177E-01  6144   0.118E-01    0.626E-01
DAV: 198    -0.358647975843E+04   -0.53972E-02   -0.65798E-03  5248   0.768E-02    0.435E-01
DAV: 199    -0.358648064105E+04   -0.88262E-03   -0.36661E-03  6272   0.314E-02    0.397E-01
DAV: 200    -0.358648066854E+04   -0.27490E-04   -0.12329E-02  6016   0.387E-02    0.405E-01
DAV: 201    -0.358648065824E+04    0.10302E-04   -0.12859E-02  6656   0.283E-02    0.419E-01
DAV: 202    -0.358648091236E+04   -0.25412E-03   -0.55480E-03  5760   0.503E-02    0.354E-01
DAV: 203    -0.358648086735E+04    0.45006E-04   -0.16304E-03  5632   0.328E-02    0.336E-01
DAV: 204    -0.358647739191E+04    0.34754E-02   -0.39895E-02  5760   0.769E-02    0.350E-01
DAV: 205    -0.358647948076E+04   -0.20888E-02   -0.37792E-03  5760   0.328E-02    0.358E-01
DAV: 206    -0.358648035671E+04   -0.87596E-03   -0.21338E-04  5120   0.172E-02    0.368E-01
DAV: 207    -0.358648055660E+04   -0.19989E-03   -0.81649E-04  6016   0.187E-02    0.458E-01
DAV: 208    -0.358648042868E+04    0.12792E-03   -0.43698E-04  6016   0.121E-02    0.420E-01
DAV: 209    -0.358648027851E+04    0.15017E-03   -0.49432E-04  6400   0.839E-03    0.421E-01
DAV: 210    -0.358648016715E+04    0.11137E-03   -0.44501E-05  5632   0.793E-03    0.419E-01
DAV: 211    -0.358647983877E+04    0.32838E-03   -0.27683E-04  5632   0.134E-02    0.392E-01
DAV: 212    -0.358647545905E+04    0.43797E-02   -0.98512E-02  5888   0.130E-01    0.926E-01
DAV: 213    -0.358648066110E+04   -0.52020E-02   -0.19022E-02  5888   0.953E-02    0.622E-01
DAV: 214    -0.358648051853E+04    0.14257E-03   -0.53721E-03  5632   0.480E-02    0.607E-01
DAV: 215    -0.358648140150E+04   -0.88297E-03   -0.14953E-03  6144   0.188E-02    0.635E-01
DAV: 216    -0.358648211446E+04   -0.71296E-03   -0.16536E-03  5888   0.311E-02    0.643E-01
DAV: 217    -0.358648093774E+04    0.11767E-02   -0.99495E-03  5632   0.370E-02    0.769E-01
DAV: 218    -0.358648133574E+04   -0.39799E-03   -0.53702E-03  5760   0.380E-02    0.613E-01
DAV: 219    -0.358648150045E+04   -0.16472E-03   -0.40958E-04  5888   0.105E-02    0.604E-01
DAV: 220    -0.358648132689E+04    0.17356E-03   -0.13451E-04  5504   0.105E-02    0.597E-01
DAV: 221    -0.358648123493E+04    0.91966E-04   -0.18580E-04  6528   0.607E-03    0.595E-01
DAV: 222    -0.358648109386E+04    0.14106E-03   -0.62595E-03  6016   0.289E-02    0.692E-01
DAV: 223    -0.358648050280E+04    0.59107E-03   -0.15878E-03  5632   0.281E-02    0.711E-01
DAV: 224    -0.358648071750E+04   -0.21470E-03   -0.22641E-04  6400   0.840E-03    0.737E-01
DAV: 225    -0.358648089316E+04   -0.17566E-03   -0.59806E-05  5760   0.592E-03    0.750E-01
DAV: 226    -0.358648080843E+04    0.84728E-04   -0.46582E-04  6272   0.105E-02    0.761E-01
DAV: 227    -0.358647546222E+04    0.53462E-02   -0.66751E-02  5760   0.130E-01    0.111E+00
DAV: 228    -0.358648159063E+04   -0.61284E-02   -0.11547E-02  5632   0.947E-02    0.932E-01
DAV: 229    -0.358648154537E+04    0.45256E-04   -0.47035E-04  6144   0.157E-02    0.927E-01
DAV: 230    -0.358648174744E+04   -0.20207E-03   -0.17403E-05  5504   0.428E-03    0.936E-01
DAV: 231    -0.358648169578E+04    0.51661E-04   -0.42540E-05  6016   0.305E-03    0.932E-01
DAV: 232    -0.358647429588E+04    0.73999E-02   -0.16115E-01  5760   0.168E-01    0.218E-01
DAV: 233    -0.358647975726E+04   -0.54614E-02   -0.47039E-02  5760   0.156E-01    0.110E-01
DAV: 234    -0.358648174565E+04   -0.19884E-02   -0.42069E-03  6016   0.354E-02    0.837E-02
DAV: 235    -0.358648359089E+04   -0.18452E-02   -0.14073E-03  5760   0.342E-02    0.845E-02
DAV: 236    -0.358648353508E+04    0.55808E-04   -0.14924E-05  5760   0.428E-03    0.843E-02
DAV: 237    -0.358648218626E+04    0.13488E-02   -0.18696E-02  5760   0.776E-02    0.166E-01
DAV: 238    -0.358648301358E+04   -0.82732E-03   -0.30056E-03  5888   0.386E-02    0.158E-01
DAV: 239    -0.358648286051E+04    0.15307E-03   -0.13372E-03  6144   0.169E-02    0.917E-02
DAV: 240    -0.358648278425E+04    0.76267E-04   -0.37303E-04  5120   0.235E-02    0.122E-01
DAV: 241    -0.358648223683E+04    0.54742E-03   -0.22331E-03  5760   0.235E-02    0.119E-01
DAV: 242    -0.358647990365E+04    0.23332E-02   -0.20011E-02  5760   0.644E-02    0.991E-02
DAV: 243    -0.358648237127E+04   -0.24676E-02   -0.25144E-03  5760   0.331E-02    0.946E-02
DAV: 244    -0.358648325139E+04   -0.88013E-03   -0.15735E-04  5376   0.160E-02    0.944E-02
DAV: 245    -0.358648312738E+04    0.12401E-03   -0.66477E-04  6272   0.918E-03    0.955E-02
DAV: 246    -0.358648337647E+04   -0.24908E-03   -0.20529E-04  5760   0.107E-02    0.996E-02
DAV: 247    -0.358648283009E+04    0.54638E-03   -0.69525E-03  5888   0.353E-02    0.127E-01
DAV: 248    -0.358648326487E+04   -0.43478E-03   -0.42753E-03  5632   0.344E-02    0.127E-01
DAV: 249    -0.358648309812E+04    0.16675E-03   -0.44984E-03  5760   0.305E-02    0.913E-02
DAV: 250    -0.358648378676E+04   -0.68864E-03   -0.44326E-04  5760   0.141E-02    0.948E-02
DAV: 251    -0.358648384287E+04   -0.56106E-04   -0.10915E-03  5760   0.210E-02    0.994E-02
DAV: 252    -0.358648294752E+04    0.89535E-03   -0.10485E-02  5632   0.445E-02    0.100E-01
DAV: 253    -0.358648319411E+04   -0.24658E-03   -0.18733E-03  5888   0.205E-02    0.958E-02
DAV: 254    -0.358648388940E+04   -0.69530E-03   -0.23300E-04  5120   0.191E-02    0.102E-01
DAV: 255    -0.358648392658E+04   -0.37177E-04   -0.46405E-04  6016   0.114E-02    0.106E-01
DAV: 256    -0.358648321165E+04    0.71493E-03   -0.55392E-03  6016   0.365E-02    0.103E-01
DAV: 257    -0.358648311806E+04    0.93587E-04   -0.34382E-03  6272   0.215E-02    0.133E-01
DAV: 258    -0.358648359869E+04   -0.48062E-03   -0.10707E-03  5760   0.238E-02    0.991E-02
DAV: 259    -0.358648371781E+04   -0.11912E-03   -0.69765E-05  5120   0.104E-02    0.974E-02
DAV: 260    -0.358648383312E+04   -0.11531E-03   -0.19947E-03  5760   0.241E-02    0.912E-02
DAV: 261    -0.358648357358E+04    0.25953E-03   -0.27602E-03  5760   0.275E-02    0.114E-01
DAV: 262    -0.358648154282E+04    0.20308E-02   -0.30442E-02  5760   0.729E-02    0.116E-01
DAV: 263    -0.358648371496E+04   -0.21721E-02   -0.22631E-03  5632   0.380E-02    0.101E-01
DAV: 264    -0.358648495247E+04   -0.12375E-02   -0.15784E-03  5632   0.311E-02    0.103E-01
DAV: 265    -0.358648408600E+04    0.86648E-03   -0.32947E-03  5760   0.335E-02    0.104E-01
DAV: 266    -0.358648368324E+04    0.40276E-03   -0.60941E-03  5760   0.308E-02    0.125E-01
DAV: 267    -0.358648350217E+04    0.18107E-03   -0.21045E-02  5632   0.919E-02    0.131E-01
DAV: 268    -0.358648427491E+04   -0.77274E-03   -0.31682E-03  5632   0.570E-02    0.107E-01
DAV: 269    -0.358648165405E+04    0.26209E-02   -0.26851E-02  5632   0.816E-02    0.158E-01
DAV: 270    -0.358648410691E+04   -0.24529E-02   -0.83153E-03  5760   0.419E-02    0.175E-01
DAV: 271    -0.358648604524E+04   -0.19383E-02   -0.18038E-03  5248   0.304E-02    0.184E-01
DAV: 272    -0.358648154570E+04    0.44995E-02   -0.52670E-02  5760   0.108E-01    0.155E-01
DAV: 273    -0.358648767169E+04   -0.61260E-02   -0.83150E-03  5632   0.821E-02    0.114E-01
DAV: 274    -0.358648712815E+04    0.54354E-03   -0.43890E-03  6144   0.298E-02    0.100E-01
DAV: 275    -0.358648676724E+04    0.36092E-03   -0.46408E-03  6272   0.224E-02    0.103E-01
DAV: 276    -0.358648692835E+04   -0.16112E-03   -0.64669E-04  5760   0.112E-02    0.108E-01
DAV: 277    -0.358647975513E+04    0.71732E-02   -0.12682E-01  5760   0.173E-01    0.195E-01
DAV: 278    -0.358648631717E+04   -0.65620E-02   -0.39527E-03  5120   0.767E-02    0.149E-01
DAV: 279    -0.358648603600E+04    0.28117E-03   -0.52292E-03  6400   0.285E-02    0.186E-01
DAV: 280    -0.358648510740E+04    0.92861E-03   -0.12727E-02  5760   0.522E-02    0.117E-01
DAV: 281    -0.358648476139E+04    0.34601E-03   -0.10351E-02  6016   0.406E-02    0.199E-01
DAV: 282    -0.358648508593E+04   -0.32454E-03   -0.53915E-03  5376   0.505E-02    0.318E-01
DAV: 283    -0.358648455473E+04    0.53120E-03   -0.12571E-03  5632   0.223E-02    0.247E-01
DAV: 284    -0.358648512647E+04   -0.57174E-03   -0.19280E-04  5120   0.135E-02    0.244E-01
DAV: 285    -0.358648523756E+04   -0.11109E-03   -0.47552E-03  5760   0.328E-02    0.249E-01
DAV: 286    -0.358648459449E+04    0.64307E-03   -0.26413E-02  5760   0.506E-02    0.111E-01
DAV: 287    -0.358648574967E+04   -0.11552E-02   -0.38081E-03  5888   0.340E-02    0.119E-01
DAV: 288    -0.358648616890E+04   -0.41923E-03   -0.82518E-04  5632   0.199E-02    0.110E-01
DAV: 289    -0.358648620807E+04   -0.39165E-04   -0.18818E-03  6528   0.173E-02    0.142E-01
DAV: 290    -0.358648653885E+04   -0.33078E-03   -0.12527E-04  5376   0.948E-03    0.162E-01
DAV: 291    -0.358648659530E+04   -0.56452E-04   -0.30471E-04  6272   0.914E-03    0.892E-02
DAV: 292    -0.358648552881E+04    0.10665E-02   -0.13483E-02  5760   0.675E-02    0.911E-02
DAV: 293    -0.358648673964E+04   -0.12108E-02   -0.77509E-03  6272   0.348E-02    0.267E-01
DAV: 294    -0.358648771088E+04   -0.97124E-03   -0.57244E-03  5760   0.548E-02    0.246E-01
DAV: 295    -0.358648771617E+04   -0.52902E-05   -0.10264E-04  5120   0.127E-02    0.244E-01
DAV: 296    -0.358648766850E+04    0.47671E-04   -0.12679E-05  6144   0.242E-03    0.237E-01
DAV: 297    -0.358648746057E+04    0.20794E-03   -0.87317E-04  6272   0.135E-02    0.188E-01
DAV: 298    -0.358648740628E+04    0.54282E-04   -0.52402E-04  6016   0.136E-02    0.134E-01
DAV: 299    -0.358648733371E+04    0.72574E-04   -0.15267E-03  5760   0.163E-02    0.114E-01
DAV: 300    -0.358648685789E+04    0.47582E-03   -0.84619E-03  5760   0.380E-02    0.109E-01
DAV: 301    -0.358648450466E+04    0.23532E-02   -0.50863E-02  6016   0.884E-02    0.267E-01
DAV: 302    -0.358648838179E+04   -0.38771E-02   -0.37438E-03  5120   0.505E-02    0.232E-01
DAV: 303    -0.358648871705E+04   -0.33527E-03   -0.39279E-03  6144   0.272E-02    0.264E-01
DAV: 304    -0.358648942541E+04   -0.70836E-03   -0.60839E-04  5504   0.212E-02    0.270E-01
DAV: 305    -0.358648929257E+04    0.13284E-03   -0.18130E-03  6016   0.211E-02    0.248E-01
DAV: 306    -0.358648896913E+04    0.32345E-03   -0.23221E-03  6400   0.181E-02    0.247E-01
DAV: 307    -0.358648899978E+04   -0.30652E-04   -0.27622E-03  5760   0.369E-02    0.311E-01
DAV: 308    -0.358648858132E+04    0.41846E-03   -0.76609E-03  5760   0.389E-02    0.373E-01
DAV: 309    -0.358648898811E+04   -0.40679E-03   -0.10428E-03  5760   0.255E-02    0.370E-01
DAV: 310    -0.358648907434E+04   -0.86229E-04   -0.27001E-04  6016   0.829E-03    0.350E-01
DAV: 311    -0.358648897634E+04    0.98000E-04   -0.38975E-04  6016   0.112E-02    0.323E-01
DAV: 312    -0.358648865357E+04    0.32277E-03   -0.15733E-03  5760   0.197E-02    0.176E-01
DAV: 313    -0.358648894015E+04   -0.28658E-03   -0.38339E-04  5248   0.160E-02    0.161E-01
DAV: 314    -0.358648904451E+04   -0.10435E-03   -0.11799E-04  6400   0.588E-03    0.154E-01
DAV: 315    -0.358648881548E+04    0.22903E-03   -0.27684E-03  5760   0.265E-02    0.164E-01
DAV: 316    -0.358648897419E+04   -0.15871E-03   -0.36086E-03  5888   0.281E-02    0.879E-02
DAV: 317    -0.358648860871E+04    0.36549E-03   -0.10657E-02  5888   0.460E-02    0.935E-02
DAV: 318    -0.358648933514E+04   -0.72644E-03   -0.11485E-02  5760   0.516E-02    0.887E-02
DAV: 319    -0.358649035134E+04   -0.10162E-02   -0.52676E-03  5760   0.467E-02    0.888E-02
DAV: 320    -0.358649018356E+04    0.16778E-03   -0.14408E-03  5760   0.179E-02    0.120E-01
DAV: 321    -0.358649027421E+04   -0.90651E-04   -0.72175E-04  5760   0.117E-02    0.124E-01
[...]
DAV:  12    -0.358885234055E+04   -0.17816E-05   -0.72044E-06  5376   0.161E-03    0.106E-02
DAV:  13    -0.358885234158E+04   -0.10247E-05   -0.48183E-06  5760   0.155E-03    0.476E-03
DAV:  14    -0.358885234286E+04   -0.12844E-05   -0.49731E-06  4992   0.781E-04    0.316E-03
DAV:  15    -0.358885234452E+04   -0.16604E-05   -0.10489E-05  5504   0.886E-04    0.298E-03
DAV:  16    -0.358885234594E+04   -0.14198E-05   -0.48076E-06  5120   0.565E-04    0.299E-03
DAV:  17    -0.358885234594E+04    0.38563E-08   -0.18505E-07  4224   0.442E-04
 augmentation electrons   1804.86267033798     
 soft         electrons  0.000000000000000E+000
 total        electrons   1804.86267033798     
 augmentation electrons -2.291109404471191E-002
 soft         electrons  0.000000000000000E+000
 total        electrons -2.291109404471191E-002
 augmentation electrons   1941.11079385267     
 soft         electrons  0.000000000000000E+000
 total        electrons   1941.11079385267     
 augmentation electrons   1884.48776191067     
 soft         electrons  0.000000000000000E+000
 total        electrons   1884.48776191067     
 augmentation electrons   56.1807357637622     
 soft         electrons   1748.68189072271     
 total        electrons   1804.86262648647     
 augmentation electrons   12.4360708756682     
 soft         electrons   1748.68189072271     
 total        electrons   19.0521682930644     
 translations:           0           1           0
 169 F= -.36264837E+04 E0= -.36264778E+04  d E =-.298964E-03  mag=    19.0751
 trial-energy change:   -0.000299  1 .order   -0.000388   -0.000593   -0.000183
 step:   0.5112(harm=  0.5112)  dis= 0.00118  next Energy= -3626.483866 (dE=-0.429E-03)
 bond charge predicted
       N       E                     dE             d eps       ncg     rms          rms(c)
DAV:   1    -0.358885227717E+04    0.68769E-04   -0.10890E-02  6016   0.134E-01    0.482E-02
DAV:   2    -0.358885234194E+04   -0.64769E-04   -0.66408E-04  6016   0.210E-02    0.306E-02
DAV:   3    -0.358885234792E+04   -0.59831E-05   -0.37068E-05  5632   0.731E-03    0.197E-02
DAV:   4    -0.358885234780E+04    0.12494E-06   -0.78834E-06  5504   0.330E-03
 augmentation electrons   1804.86282253668     
 soft         electrons  0.000000000000000E+000
 total        electrons   1804.86282253668     
 augmentation electrons -2.290965605600321E-002
 soft         electrons  0.000000000000000E+000
 total        electrons -2.290965605600321E-002
 augmentation electrons   1941.22936413318     
 soft         electrons  0.000000000000000E+000
 total        electrons   1941.22936413318     
 augmentation electrons   1884.60633219118     
 soft         electrons  0.000000000000000E+000
 total        electrons   1884.60633219118     
 augmentation electrons   56.1804578361489     
 soft         electrons   1748.68232089657     
 total        electrons   1804.86277873272     
 augmentation electrons   12.4361346320203     
 soft         electrons   1748.68232089657     
 total        electrons   19.0520626415453     
 translations:           0           1           0
 170 F= -.36264838E+04 E0= -.36264778E+04  d E =-.368946E-03  mag=    19.0750
 curvature:  -1.03 expect dE=-0.172E-02 dE for cont linesearch -0.528E-06
 trial: gam= 0.91659 g(F)=  0.166E-02 g(S)=  0.000E+00 ort = 0.589E-04 (trialstep = 0.350E+00)
 search vector abs. value=  0.748E-02
 bond charge predicted
       N       E                     dE             d eps       ncg     rms          rms(c)
DAV:   1    -0.358885249412E+04   -0.14620E-03   -0.58275E-02  5760   0.312E-01    0.174E-01
DAV:   2    -0.358885266941E+04   -0.17529E-03   -0.48949E-03  6144   0.874E-02    0.249E-01
DAV:   3    -0.358885286312E+04   -0.19371E-03   -0.88454E-04  5888   0.427E-02    0.161E-01
DAV:   4    -0.358885277262E+04    0.90505E-04   -0.19121E-04  6016   0.180E-02    0.513E-02
DAV:   5    -0.358885280146E+04   -0.28837E-04   -0.73202E-05  5632   0.100E-02    0.534E-02
DAV:   6    -0.358885280152E+04   -0.59968E-07   -0.19018E-05  6144   0.597E-03    0.300E-02
DAV:   7    -0.358885280475E+04   -0.32394E-05   -0.18559E-05  6144   0.549E-03    0.297E-02
DAV:   8    -0.358885280667E+04   -0.19141E-05   -0.21460E-05  6272   0.451E-03    0.167E-02
DAV:   9    -0.358885280825E+04   -0.15781E-05   -0.10155E-05  6016   0.278E-03    0.111E-02
DAV:  10    -0.358885280976E+04   -0.15127E-05   -0.40738E-06  5120   0.176E-03    0.582E-03
DAV:  11    -0.358885281094E+04   -0.11816E-05   -0.47618E-06  5120   0.103E-03    0.336E-03
DAV:  12    -0.358885281229E+04   -0.13499E-05   -0.48807E-06  5248   0.737E-04    0.324E-03
DAV:  13    -0.358885281369E+04   -0.14030E-05   -0.55830E-06  4736   0.573E-04    0.316E-03
DAV:  14    -0.358885281512E+04   -0.14231E-05   -0.54595E-06  4864   0.504E-04    0.316E-03
DAV:  15    -0.358885281436E+04    0.75590E-06   -0.12852E-06  4864   0.664E-04
 augmentation electrons   1804.86262977289     
 soft         electrons  0.000000000000000E+000
 total        electrons   1804.86262977289     
 augmentation electrons -2.288545345342074E-002
 soft         electrons  0.000000000000000E+000
 total        electrons -2.288545345342074E-002
 augmentation electrons   1941.51494018043     
 soft         electrons  0.000000000000000E+000
 total        electrons   1941.51494018043     
 augmentation electrons   1884.89190823843     
 soft         electrons  0.000000000000000E+000
 total        electrons   1884.89190823843     
 augmentation electrons   56.1804299325382     
 soft         electrons   1748.68215621567     
 total        electrons   1804.86258614821     
 augmentation electrons   12.4357585852675     
 soft         electrons   1748.68215621567     
 total        electrons   19.0521278904409     
 translations:           0           1           0
 171 F= -.36264843E+04 E0= -.36264783E+04  d E =-.512405E-03  mag=    19.0750
 trial-energy change:   -0.000512  1 .order   -0.000404   -0.000600   -0.000208
 step:   0.4123(harm=  0.5350)  dis= 0.00103  next Energy= -3626.484337 (dE=-0.532E-03)
 bond charge predicted
       N       E                     dE             d eps       ncg     rms          rms(c)
DAV:   1    -0.358885284322E+04   -0.28102E-04   -0.18953E-03  6016   0.560E-02    0.240E-02
DAV:   2    -0.358885285528E+04   -0.12057E-04   -0.13431E-04  6144   0.117E-02    0.306E-02
DAV:   3    -0.358885285759E+04   -0.23112E-05   -0.17518E-05  6016   0.596E-03    0.153E-02
DAV:   4    -0.358885285782E+04   -0.23373E-06   -0.46496E-06  5120   0.253E-03
 augmentation electrons   1804.86260971252     
 soft         electrons  0.000000000000000E+000
 total        electrons   1804.86260971252     
 augmentation electrons -2.285470774317960E-002
 soft         electrons  0.000000000000000E+000
 total        electrons -2.285470774317960E-002
 augmentation electrons   1941.56224750287     
 soft         electrons  0.000000000000000E+000
 total        electrons   1941.56224750287     
 augmentation electrons   1884.93921556088     
 soft         electrons  0.000000000000000E+000
 total        electrons   1884.93921556088     
 augmentation electrons   56.1800722547958     
 soft         electrons   1748.68249386675     
 total        electrons   1804.86256612154     
 augmentation electrons   12.4360252258752     
 soft         electrons   1748.68249386675     
 total        electrons   19.0524534999956     
 translations:           0           1           0
 172 F= -.36264844E+04 E0= -.36264785E+04  d E =-.621674E-03  mag=    19.0753
 curvature:  -0.66 expect dE=-0.745E-03 dE for cont linesearch -0.150E-04
 ZBRENT: increasing intervall
 opt :   0.5377  next Energy= -3626.484457 (dE=-0.651E-03)
 bond charge predicted
       N       E                     dE             d eps       ncg     rms          rms(c)
DAV:   1    -0.358885310986E+04   -0.25227E-03   -0.73370E-03  6272   0.116E-01    0.333E-01
DAV:   2    -0.358885251940E+04    0.59046E-03   -0.92636E-03  6528   0.160E-01    0.638E-01
DAV:   3    -0.358885321859E+04   -0.69919E-03   -0.34154E-03  5888   0.822E-02    0.399E-01
DAV:   4    -0.358885267479E+04    0.54381E-03   -0.69096E-04  6144   0.397E-02    0.143E-01
DAV:   5    -0.358885283971E+04   -0.16492E-03   -0.17917E-04  5888   0.136E-02    0.935E-02
DAV:   6    -0.358885288793E+04   -0.48228E-04   -0.30196E-05  6272   0.570E-03    0.855E-02
DAV:   7    -0.358885289074E+04   -0.28011E-05   -0.70241E-06  6400   0.395E-03    0.653E-02
DAV:   8    -0.358885289626E+04   -0.55226E-05   -0.12257E-05  5888   0.540E-03    0.282E-02
DAV:   9    -0.358885290620E+04   -0.99392E-05   -0.15422E-05  6656   0.386E-03    0.999E-03
DAV:  10    -0.358885291122E+04   -0.50196E-05   -0.14510E-05  5888   0.241E-03    0.567E-03
DAV:  11    -0.358885291360E+04   -0.23811E-05   -0.99434E-06  6016   0.129E-03    0.365E-03
DAV:  12    -0.358885291540E+04   -0.18055E-05   -0.66160E-06  4992   0.728E-04    0.343E-03
DAV:  13    -0.358885291702E+04   -0.16186E-05   -0.59114E-06  4608   0.548E-04    0.352E-03
DAV:  14    -0.358885291867E+04   -0.16496E-05   -0.65754E-06  4864   0.558E-04    0.344E-03
DAV:  15    -0.358885291933E+04   -0.65767E-06   -0.82640E-07  4608   0.374E-04
 augmentation electrons   1804.86258527583     
 soft         electrons  0.000000000000000E+000
 total        electrons   1804.86258527583     
 augmentation electrons -2.282251745841426E-002
 soft         electrons  0.000000000000000E+000
 total        electrons -2.282251745841426E-002
 augmentation electrons   1941.65304604875     
 soft         electrons  0.000000000000000E+000
 total        electrons   1941.65304604875     
 augmentation electrons   1885.03001410675     
 soft         electrons  0.000000000000000E+000
 total        electrons   1885.03001410675     
 augmentation electrons   56.1802637192148     
 soft         electrons   1748.68227803354     
 total        electrons   1804.86254175276     
 augmentation electrons   12.4357222811518     
 soft         electrons   1748.68227803354     
 total        electrons   19.0522258771914     
 translations:           0           1           0
 173 F= -.36264845E+04 E0= -.36264785E+04  d E =-.668679E-03  mag=    19.0750
 curvature:  -1.28 expect dE=-0.221E-02 dE for cont linesearch -0.231E-06
 trial: gam= 1.03180 g(F)=  0.173E-02 g(S)=  0.000E+00 ort =-0.368E-04 (trialstep = 0.301E+00)
 search vector abs. value=  0.962E-02
 bond charge predicted
       N       E                     dE             d eps       ncg     rms          rms(c)
DAV:   1    -0.358885295413E+04   -0.35457E-04   -0.54335E-02  5632   0.301E-01    0.107E-01
DAV:   2    -0.358885327330E+04   -0.31918E-03   -0.32968E-03  5760   0.463E-02    0.648E-02
DAV:   3    -0.358885330192E+04   -0.28619E-04   -0.16982E-04  5760   0.152E-02    0.380E-02
DAV:   4    -0.358885330009E+04    0.18351E-05   -0.29895E-05  6656   0.706E-03    0.384E-02
DAV:   5    -0.358885330018E+04   -0.93321E-07   -0.21075E-05  6144   0.590E-03    0.215E-02
DAV:   6    -0.358885330202E+04   -0.18415E-05   -0.22467E-05  6400   0.469E-03    0.284E-02
DAV:   7    -0.358885330282E+04   -0.79926E-06   -0.20423E-05  6016   0.470E-03    0.132E-02
DAV:   8    -0.358885330448E+04   -0.16563E-05   -0.53123E-06  4864   0.242E-03    0.598E-03
DAV:   9    -0.358885330590E+04   -0.14273E-05   -0.51240E-06  5504   0.106E-03    0.535E-03
DAV:  10    -0.358885330709E+04   -0.11869E-05   -0.31625E-06  5248   0.916E-04    0.437E-03
DAV:  11    -0.358885330890E+04   -0.18112E-05   -0.83814E-06  5120   0.883E-04    0.357E-03
DAV:  12    -0.358885331099E+04   -0.20887E-05   -0.10342E-05  5248   0.791E-04    0.366E-03
DAV:  13    -0.358885331150E+04   -0.50817E-06   -0.45636E-07  4352   0.506E-04
 augmentation electrons   1804.86181529516     
 soft         electrons  0.000000000000000E+000
 total        electrons   1804.86181529516     
 augmentation electrons -2.285696006842490E-002
 soft         electrons  0.000000000000000E+000
 total        electrons -2.285696006842490E-002
 augmentation electrons   1941.82377200704     
 soft         electrons  0.000000000000000E+000
 total        electrons   1941.82377200704     
 augmentation electrons   1885.20074006504     
 soft         electrons  0.000000000000000E+000
 total        electrons   1885.20074006504     
 augmentation electrons   56.1793504112442     
 soft         electrons   1748.68242156641     
 total        electrons   1804.86177197765     
 augmentation electrons   12.4355143329689     
 soft         electrons   1748.68242156641     
 total        electrons   19.0521479837595     
 translations:           0           1           0
 174 F= -.36264850E+04 E0= -.36264790E+04  d E =-.511939E-03  mag=    19.0750
 trial-energy change:   -0.000512  1 .order   -0.000337   -0.000510   -0.000164
 step:   0.3338(harm=  0.4438)  dis= 0.00091  next Energy= -3626.484995 (dE=-0.521E-03)
 bond charge predicted
       N       E                     dE             d eps       ncg     rms          rms(c)
DAV:   1    -0.358885333133E+04   -0.20342E-04   -0.63722E-04  6144   0.328E-02    0.335E-02
DAV:   2    -0.358885333017E+04    0.11597E-05   -0.12183E-04  6528   0.170E-02    0.621E-02
DAV:   3    -0.358885333703E+04   -0.68518E-05   -0.36592E-05  6144   0.876E-03    0.421E-02
DAV:   4    -0.358885333273E+04    0.42990E-05   -0.82380E-06  5632   0.398E-03    0.101E-02
DAV:   5    -0.358885333676E+04   -0.40372E-05   -0.58381E-06  5760   0.158E-03    0.823E-03
DAV:   6    -0.358885333804E+04   -0.12724E-05   -0.24389E-06  5248   0.915E-04    0.603E-03
DAV:   7    -0.358885334012E+04   -0.20878E-05   -0.93747E-06  5376   0.102E-03    0.510E-03
DAV:   8    -0.358885334262E+04   -0.24998E-05   -0.15718E-05  5376   0.118E-03    0.440E-03
DAV:   9    -0.358885334415E+04   -0.15272E-05   -0.29342E-06  4992   0.622E-04    0.380E-03
DAV:  10    -0.358885334456E+04   -0.40978E-06   -0.40063E-07  4608   0.342E-04
 augmentation electrons   1804.86169816379     
 soft         electrons  0.000000000000000E+000
 total        electrons   1804.86169816379     
 augmentation electrons -2.285250079044628E-002
 soft         electrons  0.000000000000000E+000
 total        electrons -2.285250079044628E-002
 augmentation electrons   1941.83958402439     
 soft         electrons  0.000000000000000E+000
 total        electrons   1941.83958402439     
 augmentation electrons   1885.21655208239     
 soft         electrons  0.000000000000000E+000
 total        electrons   1885.21655208239     
 augmentation electrons   56.1792383770524     
 soft         electrons   1748.68241649236     
 total        electrons   1804.86165486942     
 augmentation electrons   12.4355403392411     
 soft         electrons   1748.68241649236     
 total        electrons   19.0522600588593     
 translations:           0           1           0
 175 F= -.36264850E+04 E0= -.36264790E+04  d E =-.554440E-03  mag=    19.0751
 curvature:  -0.51 expect dE=-0.553E-03 dE for cont linesearch -0.105E-04
 ZBRENT: increasing intervall
 opt :   0.3991  next Energy= -3626.485051 (dE=-0.577E-03)
 bond charge predicted
       N       E                     dE             d eps       ncg     rms          rms(c)
DAV:   1    -0.358885336282E+04   -0.18665E-04   -0.25519E-03  5888   0.654E-02    0.426E-02
DAV:   2    -0.358885336922E+04   -0.64022E-05   -0.25521E-04  6272   0.211E-02    0.667E-02
DAV:   3    -0.358885338116E+04   -0.11941E-04   -0.56039E-05  6016   0.104E-02    0.476E-02
DAV:   4    -0.358885337542E+04    0.57368E-05   -0.13479E-05  5504   0.518E-03    0.969E-03
DAV:   5    -0.358885338014E+04   -0.47139E-05   -0.81329E-06  5376   0.222E-03    0.106E-02
DAV:   6    -0.358885338153E+04   -0.13925E-05   -0.44633E-06  5504   0.147E-03    0.603E-03
DAV:   7    -0.358885338395E+04   -0.24178E-05   -0.12550E-05  5504   0.148E-03    0.659E-03
DAV:   8    -0.358885338644E+04   -0.24929E-05   -0.13725E-05  5504   0.138E-03    0.467E-03
DAV:   9    -0.358885338850E+04   -0.20635E-05   -0.67102E-06  5120   0.772E-04    0.385E-03
DAV:  10    -0.358885339002E+04   -0.15193E-05   -0.36889E-06  5120   0.562E-04    0.383E-03
DAV:  11    -0.358885339067E+04   -0.64314E-06   -0.82198E-07  4608   0.312E-04
 augmentation electrons   1804.86155221734     
 soft         electrons  0.000000000000000E+000
 total        electrons   1804.86155221734     
 augmentation electrons -2.284093086002712E-002
 soft         electrons  0.000000000000000E+000
 total        electrons -2.284093086002712E-002
 augmentation electrons   1941.86955580749     
 soft         electrons  0.000000000000000E+000
 total        electrons   1941.86955580749     
 augmentation electrons   1885.24652386549     
 soft         electrons  0.000000000000000E+000
 total        electrons   1885.24652386549     
 augmentation electrons   56.1790802132083     
 soft         electrons   1748.68242875619     
 total        electrons   1804.86150896940     
 augmentation electrons   12.4354628392442     
 soft         electrons   1748.68242875619     
 total        electrons   19.0522112182576     
 translations:           0           1           0
 176 F= -.36264851E+04 E0= -.36264791E+04  d E =-.622196E-03  mag=    19.0751
 curvature:  -1.10 expect dE=-0.141E-02 dE for cont linesearch -0.499E-05
 trial: gam= 0.51250 g(F)=  0.128E-02 g(S)=  0.000E+00 ort = 0.209E-03 (trialstep = 0.321E+00)
 search vector abs. value=  0.402E-02
 bond charge predicted
       N       E                     dE             d eps       ncg     rms          rms(c)
DAV:   1    -0.358885345773E+04   -0.67707E-04   -0.26655E-02  5632   0.202E-01    0.665E-02
DAV:   2    -0.358885357547E+04   -0.11774E-03   -0.13030E-03  6016   0.318E-02    0.509E-02
DAV:   3    -0.358885358541E+04   -0.99396E-05   -0.88743E-05  5632   0.130E-02    0.288E-02
DAV:   4    -0.358885358697E+04   -0.15603E-05   -0.19178E-05  6528   0.480E-03    0.272E-02
DAV:   5    -0.358885358664E+04    0.32297E-06   -0.11510E-05  5376   0.496E-03    0.167E-02
DAV:   6    -0.358885358846E+04   -0.18165E-05   -0.16041E-05  5888   0.321E-03    0.105E-02
DAV:   7    -0.358885359186E+04   -0.33967E-05   -0.23525E-05  6016   0.269E-03    0.169E-02
DAV:   8    -0.358885359340E+04   -0.15454E-05   -0.61160E-06  4992   0.236E-03    0.678E-03
DAV:   9    -0.358885359532E+04   -0.19193E-05   -0.63734E-06  5504   0.125E-03    0.495E-03
DAV:  10    -0.358885359699E+04   -0.16719E-05   -0.45738E-06  5120   0.809E-04    0.428E-03
DAV:  11    -0.358885359892E+04   -0.19268E-05   -0.65137E-06  4864   0.636E-04    0.395E-03
DAV:  12    -0.358885360023E+04   -0.13096E-05   -0.26946E-06  4992   0.419E-04    0.395E-03
DAV:  13    -0.358885359982E+04    0.41489E-06   -0.18428E-07  4224   0.370E-04
 augmentation electrons   1804.86057063743     
 soft         electrons  0.000000000000000E+000
 total        electrons   1804.86057063743     
 augmentation electrons -2.276476205286956E-002
 soft         electrons  0.000000000000000E+000
 total        electrons -2.276476205286956E-002
 augmentation electrons   1941.94650710736     
 soft         electrons  0.000000000000000E+000
 total        electrons   1941.94650710736     
 augmentation electrons   1885.32347516536     
 soft         electrons  0.000000000000000E+000
 total        electrons   1885.32347516536     
 augmentation electrons   56.1781658238953     
 soft         electrons   1748.68236170295     
 total        electrons   1804.86052752684     
 augmentation electrons   12.4354192767135     
 soft         electrons   1748.68236170295     
 total        electrons   19.0522070921960     
 translations:           0           1           0
 177 F= -.36264854E+04 E0= -.36264794E+04  d E =-.274456E-03  mag=    19.0750
 trial-energy change:   -0.000274  1 .order   -0.000294   -0.000446   -0.000142
 step:   0.4702(harm=  0.4702)  dis= 0.00070  next Energy= -3626.485424 (dE=-0.327E-03)
 reached required accuracy - stopping structural energy minimisation
 writing wavefunctions
