 ----------------------------------------------------
    OOO  PPPP  EEEEE N   N M   M PPPP
   O   O P   P E     NN  N MM MM P   P
   O   O PPPP  EEEEE N N N M M M PPPP   -- VERSION
   O   O P     E     N  NN M   M P
    OOO  P     EEEEE N   N M   M P
 ----------------------------------------------------
 running  512 mpi-ranks, with    1 threads/rank
 distrk:  each k-point on  512 cores,    1 groups
 distr:  one band on    4 cores,  128 groups
 vasp.6.3.2 27Jun22 (build Nov 12 2024 19:13:04) complex                        
  
 POSCAR found type information on POSCAR MnBrN C H 
 POSCAR found :  5 types and     635 ions
 scaLAPACK will be used
 LDA part: xc-table for Pade appr. of Perdew
 POSCAR, INCAR and KPOINTS ok, starting setup
 FFT: planning ... GRIDC
 FFT: planning ... GRID_SOFT
 FFT: planning ... GRID
 WAVECAR not read
 entering main loop
       N       E                     dE             d eps       ncg     rms          rms(c)
DAV:   1     0.982485119901E+04    0.98249E+04   -0.80288E+05  5376   0.119E+03
DAV:   2    -0.262929823680E+04   -0.12454E+05   -0.12030E+05  6400   0.259E+02
DAV:   3    -0.385136252379E+04   -0.12221E+04   -0.12113E+04  6400   0.864E+01
DAV:   4    -0.388349135643E+04   -0.32129E+02   -0.31939E+02  6656   0.159E+01
DAV:   5    -0.388449120346E+04   -0.99985E+00   -0.99870E+00  6656   0.267E+00    0.137E+02
DAV:   6    -0.404265083161E+04   -0.15816E+03   -0.32081E+03  6400   0.382E+01    0.296E+02
DAV:   7    -0.365001645117E+04    0.39263E+03   -0.59058E+02  6144   0.306E+01    0.120E+02
DAV:   8    -0.384105278742E+04   -0.19104E+03   -0.14886E+03  7040   0.433E+01    0.135E+02
DAV:   9    -0.379493519769E+04    0.46118E+02   -0.24669E+03  7552   0.254E+01    0.114E+02
DAV:  10    -0.361770675890E+04    0.17723E+03   -0.55506E+02  6784   0.179E+01    0.102E+02
DAV:  11    -0.359395650090E+04    0.23750E+02   -0.72302E+02  7040   0.111E+01    0.899E+01
DAV:  12    -0.358693271228E+04    0.70238E+01   -0.22358E+02  6912   0.819E+00    0.753E+01
DAV:  13    -0.359998761984E+04   -0.13055E+02   -0.48641E+02  6784   0.823E+00    0.927E+01
DAV:  14    -0.358641808851E+04    0.13570E+02   -0.33228E+02  6400   0.990E+00    0.767E+01
DAV:  15    -0.358058077623E+04    0.58373E+01   -0.16709E+02  6016   0.635E+00    0.824E+01
DAV:  16    -0.358294800180E+04   -0.23672E+01   -0.32134E+02  6528   0.730E+00    0.708E+01
DAV:  17    -0.358069013618E+04    0.22579E+01   -0.21520E+02  6144   0.490E+00    0.670E+01
DAV:  18    -0.357910467584E+04    0.15855E+01   -0.12003E+02  6400   0.329E+00    0.641E+01
DAV:  19    -0.357602665453E+04    0.30780E+01   -0.46007E+01  6400   0.261E+00    0.606E+01
DAV:  20    -0.357201154600E+04    0.40151E+01   -0.10812E+02  6016   0.291E+00    0.593E+01
DAV:  21    -0.357010957484E+04    0.19020E+01   -0.61316E+01  6400   0.272E+00    0.550E+01
DAV:  22    -0.356949267748E+04    0.61690E+00   -0.22926E+00  5632   0.796E-01    0.523E+01
DAV:  23    -0.356899313476E+04    0.49954E+00   -0.19223E+00  5888   0.351E-01    0.513E+01
DAV:  24    -0.356952025822E+04   -0.52712E+00   -0.47497E+00  6016   0.505E-01    0.506E+01
DAV:  25    -0.356999423305E+04   -0.47397E+00   -0.44159E-01  5632   0.455E-01    0.476E+01
DAV:  26    -0.357000595769E+04   -0.11725E-01   -0.52936E-02  5760   0.227E-01    0.476E+01
DAV:  27    -0.357031321675E+04   -0.30726E+00   -0.54870E-01  6016   0.273E-01    0.446E+01
DAV:  28    -0.357063183163E+04   -0.31861E+00   -0.33658E-01  5888   0.260E-01    0.441E+01
DAV:  29    -0.357099810740E+04   -0.36628E+00   -0.92802E-01  6400   0.239E-01    0.437E+01
DAV:  30    -0.357065605746E+04    0.34205E+00   -0.26720E+00  6272   0.333E-01    0.438E+01
DAV:  31    -0.357022225647E+04    0.43380E+00   -0.84283E+00  6400   0.541E-01    0.384E+01
DAV:  32    -0.356986658755E+04    0.35567E+00   -0.27428E+00  5376   0.499E-01    0.448E+01
DAV:  33    -0.357056187472E+04   -0.69529E+00   -0.61133E+00  6272   0.807E-01    0.405E+01
DAV:  34    -0.357154188216E+04   -0.98001E+00   -0.99892E-01  5888   0.434E-01    0.390E+01
DAV:  35    -0.357213370587E+04   -0.59182E+00   -0.87946E-01  6528   0.269E-01    0.381E+01
DAV:  36    -0.357232393050E+04   -0.19022E+00   -0.56006E-01  6016   0.262E-01    0.380E+01
DAV:  37    -0.357315628190E+04   -0.83235E+00   -0.34745E+00  6656   0.363E-01    0.377E+01
DAV:  38    -0.357448619155E+04   -0.13299E+01   -0.50868E+00  6784   0.637E-01    0.373E+01
DAV:  39    -0.357507875662E+04   -0.59257E+00   -0.88260E-01  6144   0.398E-01    0.370E+01
DAV:  40    -0.357666562261E+04   -0.15869E+01   -0.16834E+01  6656   0.135E+00    0.345E+01
DAV:  41    -0.357781142544E+04   -0.11458E+01   -0.41919E+01  6784   0.277E+00    0.303E+01
DAV:  42    -0.357550287551E+04    0.23085E+01   -0.59515E+00  6400   0.216E+00    0.239E+01
DAV:  43    -0.357230029822E+04    0.32026E+01   -0.38748E+00  6272   0.182E+00    0.236E+01
DAV:  44    -0.356611430885E+04    0.61860E+01   -0.51490E+00  6400   0.252E+00    0.249E+01
DAV:  45    -0.355960162189E+04    0.65127E+01   -0.73983E+00  6528   0.201E+00    0.265E+01
DAV:  46    -0.355852596602E+04    0.10757E+01   -0.87214E-01  6016   0.737E-01    0.266E+01
DAV:  47    -0.355857124641E+04   -0.45280E-01   -0.71121E-02  6784   0.201E-01    0.264E+01
DAV:  48    -0.355838606317E+04    0.18518E+00   -0.12624E-01  6016   0.259E-01    0.264E+01
DAV:  49    -0.355864700873E+04   -0.26095E+00   -0.13515E+00  6656   0.782E-01    0.258E+01
DAV:  50    -0.356014544969E+04   -0.14984E+01   -0.13411E+00  6272   0.910E-01    0.250E+01
DAV:  51    -0.355789785172E+04    0.22476E+01   -0.19215E+00  6144   0.149E+00    0.250E+01
DAV:  52    -0.355473755143E+04    0.31603E+01   -0.20264E+00  6528   0.134E+00    0.253E+01
DAV:  53    -0.355234585894E+04    0.23917E+01   -0.17226E+00  6016   0.108E+00    0.259E+01
DAV:  54    -0.355222083491E+04    0.12502E+00   -0.33096E+00  6784   0.976E-01    0.292E+01
DAV:  55    -0.355367879600E+04   -0.14580E+01   -0.23726E-01  5632   0.473E-01    0.290E+01
DAV:  56    -0.354972487392E+04    0.39539E+01   -0.25448E+00  6400   0.279E+00    0.298E+01
DAV:  57    -0.355182811820E+04   -0.21032E+01   -0.32209E+00  6656   0.117E+00    0.318E+01
DAV:  58    -0.355187564558E+04   -0.47527E-01   -0.17981E-01  5888   0.376E-01    0.318E+01
DAV:  59    -0.355192587118E+04   -0.50226E-01   -0.12910E-02  6528   0.741E-02    0.318E+01
DAV:  60    -0.355196987750E+04   -0.44006E-01   -0.16982E-02  6528   0.366E-02    0.318E+01
DAV:  61    -0.353945647762E+04    0.12513E+02   -0.32248E+01  6400   0.442E+00    0.315E+01
DAV:  62    -0.354750772896E+04   -0.80513E+01   -0.34108E+00  6016   0.171E+00    0.296E+01
DAV:  63    -0.355149010470E+04   -0.39824E+01   -0.30423E+00  6144   0.154E+00    0.283E+01
DAV:  64    -0.355400296497E+04   -0.25129E+01   -0.68964E+00  7040   0.151E+00    0.290E+01
DAV:  65    -0.355219997182E+04    0.18030E+01   -0.11888E+00  6656   0.871E-01    0.298E+01
DAV:  66    -0.356384713200E+04   -0.11647E+02   -0.58284E+01  6656   0.483E+00    0.317E+01
DAV:  67    -0.356876677526E+04   -0.49196E+01   -0.99306E+00  6144   0.225E+00    0.260E+01
DAV:  68    -0.357260774957E+04   -0.38410E+01   -0.36287E+00  6400   0.126E+00    0.219E+01
DAV:  69    -0.357376302664E+04   -0.11553E+01   -0.70415E+00  6528   0.156E+00    0.177E+01
DAV:  70    -0.357350185645E+04    0.26117E+00   -0.17915E+00  6528   0.111E+00    0.177E+01
DAV:  71    -0.357520869674E+04   -0.17068E+01   -0.40951E+00  7040   0.217E+00    0.154E+01
DAV:  72    -0.357394178970E+04    0.12669E+01   -0.58519E+00  6784   0.146E+00    0.173E+01
DAV:  73    -0.357411276360E+04   -0.17097E+00   -0.42908E-01  6016   0.615E-01    0.170E+01
DAV:  74    -0.357362636705E+04    0.48640E+00   -0.81795E-01  6784   0.722E-01    0.168E+01
DAV:  75    -0.357322012391E+04    0.40624E+00   -0.58533E-01  6656   0.541E-01    0.170E+01
DAV:  76    -0.357623105753E+04   -0.30109E+01   -0.13527E+01  6784   0.273E+00    0.161E+01
DAV:  77    -0.357717925456E+04   -0.94820E+00   -0.15083E+00  6272   0.107E+00    0.155E+01
DAV:  78    -0.357756609415E+04   -0.38684E+00   -0.10582E+00  6912   0.873E-01    0.150E+01
DAV:  79    -0.357859562701E+04   -0.10295E+01   -0.13538E+01  6400   0.146E+00    0.183E+01
DAV:  80    -0.357893444062E+04   -0.33881E+00   -0.29320E-01  5760   0.454E-01    0.180E+01
DAV:  81    -0.358261409867E+04   -0.36797E+01   -0.10326E+01  6912   0.223E+00    0.216E+01
DAV:  82    -0.358151441263E+04    0.10997E+01   -0.11364E+00  6144   0.100E+00    0.202E+01
DAV:  83    -0.358091222565E+04    0.60219E+00   -0.13616E+01  6784   0.144E+00    0.104E+01
DAV:  84    -0.358259592706E+04   -0.16837E+01   -0.47700E+00  6400   0.123E+00    0.136E+01
DAV:  85    -0.358296283261E+04   -0.36691E+00   -0.22668E-01  5888   0.381E-01    0.130E+01
DAV:  86    -0.358417941170E+04   -0.12166E+01   -0.14428E+00  6912   0.112E+00    0.115E+01
DAV:  87    -0.358411167867E+04    0.67733E-01   -0.76764E-01  6272   0.960E-01    0.116E+01
DAV:  88    -0.358382559944E+04    0.28608E+00   -0.11294E+00  6528   0.112E+00    0.117E+01
DAV:  89    -0.358352956956E+04    0.29603E+00   -0.13318E+00  7040   0.132E+00    0.115E+01
DAV:  90    -0.358406023048E+04   -0.53066E+00   -0.93203E-01  6656   0.124E+00    0.105E+01
DAV:  91    -0.358431188644E+04   -0.25166E+00   -0.13055E+00  6912   0.104E+00    0.152E+01
DAV:  92    -0.358438845638E+04   -0.76570E-01   -0.22089E-01  6016   0.437E-01    0.165E+01
DAV:  93    -0.358424923778E+04    0.13922E+00   -0.44953E-01  6272   0.167E-01    0.163E+01
DAV:  94    -0.358428930886E+04   -0.40071E-01   -0.20338E-02  5760   0.155E-01    0.163E+01
DAV:  95    -0.358434452440E+04   -0.55216E-01   -0.91115E-02  6272   0.860E-02    0.166E+01
DAV:  96    -0.358426830367E+04    0.76221E-01   -0.84424E-03  6016   0.105E-01    0.167E+01
DAV:  97    -0.358424003367E+04    0.28270E-01   -0.18422E-03  6656   0.489E-02    0.168E+01
DAV:  98    -0.358418132250E+04    0.58711E-01   -0.26581E-03  6656   0.598E-02    0.169E+01
DAV:  99    -0.358428700323E+04   -0.10568E+00   -0.88827E-02  6400   0.424E-01    0.151E+01
DAV: 100    -0.358501028049E+04   -0.72328E+00   -0.38079E+00  6400   0.754E-01    0.863E+00
DAV: 101    -0.358560048981E+04   -0.59021E+00   -0.76923E-01  6272   0.863E-01    0.797E+00
DAV: 102    -0.358553577066E+04    0.64719E-01   -0.24237E-01  6400   0.529E-01    0.746E+00
DAV: 103    -0.358606007752E+04   -0.52431E+00   -0.55398E+00  6272   0.661E-01    0.134E+01
DAV: 104    -0.358628434594E+04   -0.22427E+00   -0.38750E-01  5760   0.532E-01    0.104E+01
DAV: 105    -0.358632925671E+04   -0.44911E-01   -0.26891E-02  6016   0.151E-01    0.102E+01
DAV: 106    -0.358604322117E+04    0.28604E+00   -0.24767E+00  6528   0.806E-01    0.140E+01
DAV: 107    -0.358592389119E+04    0.11933E+00   -0.25542E-01  5760   0.388E-01    0.118E+01
DAV: 108    -0.358607429907E+04   -0.15041E+00   -0.96703E-02  5632   0.212E-01    0.957E+00
DAV: 109    -0.358588065951E+04    0.19364E+00   -0.14573E-01  5760   0.266E-01    0.111E+01
DAV: 110    -0.358582417614E+04    0.56483E-01   -0.58964E-01  6400   0.456E-01    0.959E+00
DAV: 111    -0.358633408636E+04   -0.50991E+00   -0.27365E+00  6400   0.123E+00    0.705E+00
DAV: 112    -0.358639655011E+04   -0.62464E-01   -0.11080E+00  6144   0.667E-01    0.805E+00
DAV: 113    -0.358638403807E+04    0.12512E-01   -0.12317E-01  5888   0.304E-01    0.950E+00
DAV: 114    -0.358639040602E+04   -0.63680E-02   -0.23361E-01  6912   0.254E-01    0.968E+00
DAV: 115    -0.358638835996E+04    0.20461E-02   -0.59601E-02  6912   0.141E-01    0.964E+00
DAV: 116    -0.358628737113E+04    0.10099E+00   -0.13447E-01  6272   0.420E-01    0.103E+01
DAV: 117    -0.358614161222E+04    0.14576E+00   -0.87308E-02  6656   0.254E-01    0.633E+00
DAV: 118    -0.358635794446E+04   -0.21633E+00   -0.12542E+00  6144   0.275E-01    0.657E+00
DAV: 119    -0.358636529963E+04   -0.73552E-02   -0.12294E-01  6144   0.293E-01    0.663E+00
DAV: 120    -0.358636438954E+04    0.91010E-03   -0.15080E-02  5888   0.106E-01    0.658E+00
DAV: 121    -0.358674733407E+04   -0.38294E+00   -0.40239E+00  6400   0.471E-01    0.103E+01
DAV: 122    -0.358659269438E+04    0.15464E+00   -0.69563E-02  5632   0.250E-01    0.101E+01
DAV: 123    -0.358665413083E+04   -0.61436E-01   -0.16422E-02  5888   0.929E-02    0.102E+01
DAV: 124    -0.358683140071E+04   -0.17727E+00   -0.97846E-02  6400   0.151E-01    0.103E+01
DAV: 125    -0.358701555574E+04   -0.18416E+00   -0.17870E-01  6144   0.226E-01    0.103E+01
DAV: 126    -0.358762978752E+04   -0.61423E+00   -0.14256E+00  6400   0.598E-01    0.106E+01
DAV: 127    -0.358741320207E+04    0.21659E+00   -0.31761E-01  5888   0.375E-01    0.106E+01
DAV: 128    -0.358734872533E+04    0.64477E-01   -0.11331E-01  6272   0.179E-01    0.107E+01
DAV: 129    -0.358736385605E+04   -0.15131E-01   -0.13906E-02  5632   0.109E-01    0.108E+01
DAV: 130    -0.358736520490E+04   -0.13488E-02   -0.27741E-03  6144   0.446E-02    0.108E+01
DAV: 131    -0.358722734974E+04    0.13786E+00   -0.31341E-02  6400   0.207E-01    0.105E+01
DAV: 132    -0.358701299954E+04    0.21435E+00   -0.19059E-01  6656   0.254E-01    0.107E+01
DAV: 133    -0.358692341075E+04    0.89589E-01   -0.49332E-01  6528   0.294E-01    0.102E+01
DAV: 134    -0.358702807532E+04   -0.10466E+00   -0.33913E-01  6144   0.301E-01    0.112E+01
DAV: 135    -0.358729886147E+04   -0.27079E+00   -0.11821E-01  6272   0.264E-01    0.127E+01
DAV: 136    -0.358713661468E+04    0.16225E+00   -0.48740E-01  6272   0.419E-01    0.125E+01
DAV: 137    -0.358700036200E+04    0.13625E+00   -0.34621E-01  6528   0.429E-01    0.120E+01
DAV: 138    -0.358677710390E+04    0.22326E+00   -0.45611E-01  5632   0.363E-01    0.120E+01
DAV: 139    -0.358641275942E+04    0.36434E+00   -0.54886E-01  5888   0.266E-01    0.120E+01
DAV: 140    -0.358643543078E+04   -0.22671E-01   -0.13624E-01  5888   0.209E-01    0.122E+01
DAV: 141    -0.358615886944E+04    0.27656E+00   -0.20096E+00  6272   0.760E-01    0.132E+01
DAV: 142    -0.358619741204E+04   -0.38543E-01   -0.22039E-01  6144   0.262E-01    0.130E+01
DAV: 143    -0.358628168360E+04   -0.84272E-01   -0.58263E-02  6272   0.122E-01    0.129E+01
DAV: 144    -0.358641899521E+04   -0.13731E+00   -0.65638E-02  6144   0.134E-01    0.127E+01
DAV: 145    -0.358624310784E+04    0.17589E+00   -0.24293E-01  6144   0.400E-01    0.122E+01
DAV: 146    -0.358637030608E+04   -0.12720E+00   -0.88631E-01  6016   0.543E-01    0.103E+01
DAV: 147    -0.358668762757E+04   -0.31732E+00   -0.40389E-01  6144   0.526E-01    0.891E+00
DAV: 148    -0.358708514619E+04   -0.39752E+00   -0.29630E-01  6656   0.376E-01    0.942E+00
DAV: 149    -0.358718835388E+04   -0.10321E+00   -0.81297E-02  6272   0.184E-01    0.921E+00
DAV: 150    -0.358730397655E+04   -0.11562E+00   -0.11170E-01  6016   0.169E-01    0.886E+00
DAV: 151    -0.358730140637E+04    0.25702E-02   -0.18227E+00  6144   0.532E-01    0.849E+00
DAV: 152    -0.358709577266E+04    0.20563E+00   -0.21289E-01  6144   0.553E-01    0.815E+00
DAV: 153    -0.358701041398E+04    0.85359E-01   -0.39552E-01  6272   0.466E-01    0.867E+00
DAV: 154    -0.358697697223E+04    0.33442E-01   -0.85805E-02  5888   0.194E-01    0.859E+00
DAV: 155    -0.358687355979E+04    0.10341E+00   -0.62812E-02  6016   0.123E-01    0.855E+00
DAV: 156    -0.358534721340E+04    0.15263E+01   -0.25133E+00  5888   0.149E+00    0.710E+00
DAV: 157    -0.358553545001E+04   -0.18824E+00   -0.48451E-01  5888   0.606E-01    0.766E+00
DAV: 158    -0.358599816443E+04   -0.46271E+00   -0.42558E-01  6016   0.301E-01    0.747E+00
DAV: 159    -0.358577784278E+04    0.22032E+00   -0.56194E-01  6528   0.306E-01    0.726E+00
DAV: 160    -0.358577857700E+04   -0.73422E-03   -0.35761E-02  6144   0.124E-01    0.728E+00
DAV: 161    -0.358622399602E+04   -0.44542E+00   -0.27113E-01  6272   0.436E-01    0.744E+00
DAV: 162    -0.358628489918E+04   -0.60903E-01   -0.19692E-02  6016   0.973E-02    0.746E+00
DAV: 163    -0.358614117514E+04    0.14372E+00   -0.10090E-01  6144   0.154E-01    0.748E+00
DAV: 164    -0.358614622758E+04   -0.50524E-02   -0.32150E-03  5632   0.433E-02    0.747E+00
DAV: 165    -0.358618669543E+04   -0.40468E-01   -0.19313E-02  6144   0.683E-02    0.753E+00
DAV: 166    -0.358531606976E+04    0.87063E+00   -0.13198E+00  6144   0.685E-01    0.685E+00
DAV: 167    -0.358557109302E+04   -0.25502E+00   -0.80157E-02  5632   0.206E-01    0.680E+00
DAV: 168    -0.358613751006E+04   -0.56642E+00   -0.23912E-01  6272   0.274E-01    0.683E+00
DAV: 169    -0.358602750311E+04    0.11001E+00   -0.25585E-02  5760   0.106E-01    0.680E+00
DAV: 170    -0.358587453341E+04    0.15297E+00   -0.16547E-01  6144   0.197E-01    0.668E+00
DAV: 171    -0.358638120855E+04   -0.50668E+00   -0.20241E-01  5888   0.285E-01    0.677E+00
DAV: 172    -0.358532858937E+04    0.10526E+01   -0.46252E-01  5504   0.501E-01    0.669E+00
DAV: 173    -0.358536812245E+04   -0.39533E-01   -0.18733E-02  5888   0.106E-01    0.668E+00
DAV: 174    -0.358544175330E+04   -0.73631E-01   -0.29419E-03  6528   0.369E-02    0.669E+00
DAV: 175    -0.358556026186E+04   -0.11851E+00   -0.29709E-03  6016   0.409E-02    0.670E+00
DAV: 176    -0.358622968483E+04   -0.66942E+00   -0.16103E+00  6016   0.839E-01    0.702E+00
DAV: 177    -0.358690181089E+04   -0.67213E+00   -0.65419E-01  6144   0.405E-01    0.735E+00
DAV: 178    -0.358715761941E+04   -0.25581E+00   -0.45266E-01  5760   0.384E-01    0.794E+00
DAV: 179    -0.358734447751E+04   -0.18686E+00   -0.25398E+00  6016   0.401E-01    0.134E+01
DAV: 180    -0.358732217693E+04    0.22301E-01   -0.51929E-02  5760   0.223E-01    0.134E+01
DAV: 181    -0.358724001465E+04    0.82162E-01   -0.63053E-01  5504   0.374E-01    0.822E+00
DAV: 182    -0.358721177690E+04    0.28238E-01   -0.31277E-01  6016   0.227E-01    0.843E+00
DAV: 183    -0.358724125558E+04   -0.29479E-01   -0.45461E-02  6016   0.123E-01    0.104E+01
DAV: 184    -0.358713682721E+04    0.10443E+00   -0.38084E-02  5632   0.130E-01    0.101E+01
DAV: 185    -0.358712419346E+04    0.12634E-01   -0.11555E-03  6400   0.186E-02    0.101E+01
DAV: 186    -0.358445735844E+04    0.26668E+01   -0.73253E+00  5760   0.128E+00    0.112E+01
DAV: 187    -0.358332975431E+04    0.11276E+01   -0.93867E-01  5760   0.513E-01    0.112E+01
DAV: 188    -0.358269525729E+04    0.63450E+00   -0.22228E-01  6656   0.232E-01    0.113E+01
DAV: 189    -0.358273370678E+04   -0.38449E-01   -0.37291E-02  6528   0.962E-02    0.112E+01
DAV: 190    -0.358287391516E+04   -0.14021E+00   -0.10627E-01  6144   0.145E-01    0.108E+01
DAV: 191    -0.358640339871E+04   -0.35295E+01   -0.25026E+01  6144   0.266E+00    0.835E+00
DAV: 192    -0.358653978653E+04   -0.13639E+00   -0.25604E+00  6016   0.149E+00    0.843E+00
DAV: 193    -0.358625709328E+04    0.28269E+00   -0.85763E-01  6784   0.946E-01    0.903E+00
DAV: 194    -0.358636180917E+04   -0.10472E+00   -0.13456E-01  5888   0.308E-01    0.929E+00
DAV: 195    -0.358633346788E+04    0.28341E-01   -0.88801E-02  6272   0.171E-01    0.935E+00
DAV: 196    -0.358643986250E+04   -0.10639E+00   -0.10106E+01  6016   0.140E+00    0.903E+00
DAV: 197    -0.358634725434E+04    0.92608E-01   -0.21329E-01  6016   0.351E-01    0.946E+00
DAV: 198    -0.358657734567E+04   -0.23009E+00   -0.12066E-01  6016   0.247E-01    0.898E+00
DAV: 199    -0.358664892277E+04   -0.71577E-01   -0.10242E+00  6144   0.460E-01    0.842E+00
DAV: 200    -0.358625624208E+04    0.39268E+00   -0.31963E+00  6144   0.761E-01    0.824E+00
DAV: 201    -0.358654726011E+04   -0.29102E+00   -0.15152E+00  6272   0.542E-01    0.863E+00
DAV: 202    -0.358672904929E+04   -0.18179E+00   -0.35820E-01  5760   0.323E-01    0.873E+00
DAV: 203    -0.358672293515E+04    0.61141E-02   -0.21263E-01  6144   0.293E-01    0.865E+00
DAV: 204    -0.358658690344E+04    0.13603E+00   -0.17087E-01  5888   0.260E-01    0.855E+00
DAV: 205    -0.358624202617E+04    0.34488E+00   -0.41451E-01  6272   0.399E-01    0.843E+00
DAV: 206    -0.358672031340E+04   -0.47829E+00   -0.11525E+00  6016   0.734E-01    0.679E+00
DAV: 207    -0.358699139493E+04   -0.27108E+00   -0.44621E-01  6016   0.587E-01    0.810E+00
DAV: 208    -0.358693163602E+04    0.59759E-01   -0.10573E-01  5888   0.310E-01    0.738E+00
DAV: 209    -0.358683723709E+04    0.94399E-01   -0.18584E-01  5888   0.196E-01    0.720E+00
DAV: 210    -0.358683994208E+04   -0.27050E-02   -0.21306E-02  5760   0.869E-02    0.768E+00
DAV: 211    -0.358682121649E+04    0.18726E-01   -0.12536E-01  5760   0.291E-01    0.852E+00
DAV: 212    -0.358696860061E+04   -0.14738E+00   -0.12649E-01  5888   0.255E-01    0.872E+00
DAV: 213    -0.358697930870E+04   -0.10708E-01   -0.85931E-03  6144   0.666E-02    0.871E+00
DAV: 214    -0.358693204968E+04    0.47259E-01   -0.84829E-02  5632   0.149E-01    0.875E+00
DAV: 215    -0.358702961363E+04   -0.97564E-01   -0.46061E-02  6016   0.126E-01    0.886E+00
DAV: 216    -0.358680005016E+04    0.22956E+00   -0.68002E-01  6144   0.828E-01    0.783E+00
DAV: 217    -0.358699270289E+04   -0.19265E+00   -0.31163E-01  6144   0.333E-01    0.781E+00
DAV: 218    -0.358700566889E+04   -0.12966E-01   -0.73475E-02  6784   0.135E-01    0.724E+00
DAV: 219    -0.358697133375E+04    0.34335E-01   -0.55130E-02  6400   0.183E-01    0.614E+00
DAV: 220    -0.358728996965E+04   -0.31864E+00   -0.40364E-01  5888   0.493E-01    0.775E+00
DAV: 221    -0.358724901136E+04    0.40958E-01   -0.61962E-01  6528   0.602E-01    0.804E+00
DAV: 222    -0.358714045019E+04    0.10856E+00   -0.18367E-01  5888   0.322E-01    0.776E+00
DAV: 223    -0.358715627307E+04   -0.15823E-01   -0.16725E-02  6016   0.934E-02    0.771E+00
DAV: 224    -0.358714667433E+04    0.95987E-02   -0.77344E-03  6272   0.418E-02    0.772E+00
DAV: 225    -0.358717941856E+04   -0.32744E-01   -0.75161E-02  6272   0.860E-02    0.771E+00
DAV: 226    -0.358729741163E+04   -0.11799E+00   -0.20112E+01  6656   0.294E+00    0.600E+00
DAV: 227    -0.358766532859E+04   -0.36792E+00   -0.11457E+00  6144   0.869E-01    0.542E+00
DAV: 228    -0.358734784085E+04    0.31749E+00   -0.78855E-01  6912   0.728E-01    0.552E+00
DAV: 229    -0.358743354746E+04   -0.85707E-01   -0.10497E-01  5888   0.304E-01    0.549E+00
DAV: 230    -0.358749313182E+04   -0.59584E-01   -0.67099E-02  6528   0.255E-01    0.550E+00
DAV: 231    -0.358790329476E+04   -0.41016E+00   -0.25809E+00  6656   0.139E+00    0.495E+00
DAV: 232    -0.358791221297E+04   -0.89182E-02   -0.26930E-01  5888   0.396E-01    0.461E+00
DAV: 233    -0.358775666844E+04    0.15554E+00   -0.56402E-01  6656   0.442E-01    0.436E+00
DAV: 234    -0.358770086328E+04    0.55805E-01   -0.13290E-01  6528   0.231E-01    0.423E+00
DAV: 235    -0.358772489027E+04   -0.24027E-01   -0.19684E-02  5760   0.122E-01    0.427E+00
DAV: 236    -0.358776089993E+04   -0.36010E-01   -0.65328E-02  6144   0.212E-01    0.436E+00
DAV: 237    -0.358771448172E+04    0.46418E-01   -0.97581E-02  6400   0.150E-01    0.445E+00
DAV: 238    -0.358773355802E+04   -0.19076E-01   -0.27730E-02  6144   0.113E-01    0.443E+00
DAV: 239    -0.358772830604E+04    0.52520E-02   -0.30473E-02  6528   0.737E-02    0.444E+00
DAV: 240    -0.358777804020E+04   -0.49734E-01   -0.86861E-02  6528   0.162E-01    0.444E+00
DAV: 241    -0.358792094022E+04   -0.14290E+00   -0.14895E-01  6784   0.259E-01    0.442E+00
DAV: 242    -0.358801036872E+04   -0.89428E-01   -0.37028E-01  6144   0.373E-01    0.445E+00
DAV: 243    -0.358808484188E+04   -0.74473E-01   -0.45877E-01  6912   0.376E-01    0.457E+00
DAV: 244    -0.358808957540E+04   -0.47335E-02   -0.23929E-01  6784   0.260E-01    0.447E+00
DAV: 245    -0.358807955814E+04    0.10017E-01   -0.57095E-02  6656   0.149E-01    0.439E+00
DAV: 246    -0.358816629086E+04   -0.86733E-01   -0.38540E-01  6272   0.408E-01    0.461E+00
DAV: 247    -0.358816344668E+04    0.28442E-02   -0.42348E-02  6272   0.156E-01    0.458E+00
DAV: 248    -0.358816790356E+04   -0.44569E-02   -0.17551E-02  6400   0.969E-02    0.457E+00
DAV: 249    -0.358816384334E+04    0.40602E-02   -0.16419E-01  6784   0.189E-01    0.452E+00
DAV: 250    -0.358814247728E+04    0.21366E-01   -0.11664E+00  6784   0.439E-01    0.428E+00
DAV: 251    -0.358813840771E+04    0.40696E-02   -0.19851E-01  6272   0.362E-01    0.396E+00
DAV: 252    -0.358808640930E+04    0.51998E-01   -0.59971E-01  6784   0.384E-01    0.351E+00
DAV: 253    -0.358804668344E+04    0.39726E-01   -0.35344E-01  6784   0.306E-01    0.312E+00
DAV: 254    -0.358803194382E+04    0.14740E-01   -0.26862E-01  6528   0.277E-01    0.275E+00
DAV: 255    -0.358798731228E+04    0.44632E-01   -0.59976E-01  6656   0.388E-01    0.228E+00
DAV: 256    -0.358796504747E+04    0.22265E-01   -0.96687E-02  6272   0.203E-01    0.220E+00
DAV: 257    -0.358796700616E+04   -0.19587E-02   -0.40805E-02  6016   0.111E-01    0.212E+00
DAV: 258    -0.358798094717E+04   -0.13941E-01   -0.13315E-02  6272   0.691E-02    0.207E+00
DAV: 259    -0.358798818068E+04   -0.72335E-02   -0.11519E-02  7040   0.556E-02    0.203E+00
DAV: 260    -0.358799201617E+04   -0.38355E-02   -0.14438E-02  6528   0.707E-02    0.202E+00
DAV: 261    -0.358783999304E+04    0.15202E+00   -0.15791E+00  6272   0.943E-01    0.295E+00
DAV: 262    -0.358783436675E+04    0.56263E-02   -0.75263E-01  5632   0.300E-01    0.184E+00
DAV: 263    -0.358784964450E+04   -0.15278E-01   -0.96289E-03  5888   0.960E-02    0.177E+00
DAV: 264    -0.358785452379E+04   -0.48793E-02   -0.96694E-04  6016   0.320E-02    0.176E+00
DAV: 265    -0.358786072068E+04   -0.61969E-02   -0.22819E-03  6272   0.334E-02    0.173E+00
DAV: 266    -0.358785883137E+04    0.18893E-02   -0.29183E-03  6656   0.340E-02    0.180E+00
DAV: 267    -0.358785859995E+04    0.23142E-03   -0.14575E-04  5632   0.114E-02    0.181E+00
DAV: 268    -0.358785829172E+04    0.30822E-03   -0.11210E-05  5888   0.363E-03    0.181E+00
DAV: 269    -0.358786068685E+04   -0.23951E-02   -0.55222E-04  6016   0.155E-02    0.180E+00
DAV: 270    -0.358786458745E+04   -0.39006E-02   -0.46167E-03  6272   0.344E-02    0.179E+00
DAV: 271    -0.358767369743E+04    0.19089E+00   -0.18290E+00  6400   0.761E-01    0.611E+00
DAV: 272    -0.358767088249E+04    0.28149E-02   -0.66271E-02  5632   0.228E-01    0.595E+00
DAV: 273    -0.358767056805E+04    0.31444E-03   -0.10914E-02  6656   0.665E-02    0.675E+00
DAV: 274    -0.358767625649E+04   -0.56884E-02   -0.26690E-03  5760   0.546E-02    0.669E+00
DAV: 275    -0.358764706886E+04    0.29188E-01   -0.65277E-03  6144   0.438E-02    0.647E+00
DAV: 276    -0.358755614521E+04    0.90924E-01   -0.14650E-01  6144   0.173E-01    0.613E+00
DAV: 277    -0.358757736665E+04   -0.21221E-01   -0.72227E-03  5760   0.889E-02    0.625E+00
DAV: 278    -0.358757525487E+04    0.21118E-02   -0.97285E-04  5632   0.287E-02    0.632E+00
DAV: 279    -0.358759473970E+04   -0.19485E-01   -0.22198E-03  6272   0.299E-02    0.645E+00
DAV: 280    -0.358760791544E+04   -0.13176E-01   -0.17143E-02  6272   0.979E-02    0.701E+00
DAV: 281    -0.358761119286E+04   -0.32774E-02   -0.90351E-02  6400   0.156E-01    0.706E+00
DAV: 282    -0.358768330187E+04   -0.72109E-01   -0.10941E-02  5760   0.868E-02    0.676E+00
DAV: 283    -0.358766817478E+04    0.15127E-01   -0.29198E-02  5888   0.117E-01    0.653E+00
DAV: 284    -0.358767246964E+04   -0.42949E-02   -0.97465E-03  5760   0.815E-02    0.640E+00
DAV: 285    -0.358767188114E+04    0.58850E-03   -0.19012E-03  5888   0.377E-02    0.636E+00
DAV: 286    -0.358771543043E+04   -0.43549E-01   -0.10514E-01  6656   0.174E-01    0.624E+00
DAV: 287    -0.358756232635E+04    0.15310E+00   -0.26068E-01  6656   0.191E-01    0.723E+00
DAV: 288    -0.358756253853E+04   -0.21217E-03   -0.88538E-03  5632   0.950E-02    0.712E+00
DAV: 289    -0.358749982810E+04    0.62710E-01   -0.21915E-02  6528   0.705E-02    0.724E+00
DAV: 290    -0.358745032546E+04    0.49503E-01   -0.11056E-02  6144   0.659E-02    0.718E+00
DAV: 291    -0.358767355997E+04   -0.22323E+00   -0.37181E-01  6272   0.317E-01    0.637E+00
DAV: 292    -0.358771466528E+04   -0.41105E-01   -0.29621E-02  5632   0.141E-01    0.689E+00
DAV: 293    -0.358770769747E+04    0.69678E-02   -0.21303E-02  6016   0.144E-01    0.769E+00
DAV: 294    -0.358772870970E+04   -0.21012E-01   -0.16286E-02  6016   0.113E-01    0.855E+00
DAV: 295    -0.358780743127E+04   -0.78722E-01   -0.95507E-02  6144   0.289E-01    0.976E+00
DAV: 296    -0.358805649951E+04   -0.24907E+00   -0.60424E-01  6400   0.814E-01    0.106E+01
DAV: 297    -0.358807542879E+04   -0.18929E-01   -0.77156E-02  5632   0.225E-01    0.105E+01
DAV: 298    -0.358807378780E+04    0.16410E-02   -0.22374E-03  6400   0.392E-02    0.105E+01
DAV: 299    -0.358807498378E+04   -0.11960E-02   -0.19761E-04  6656   0.141E-02    0.105E+01
DAV: 300    -0.358808109847E+04   -0.61147E-02   -0.18778E-03  6656   0.367E-02    0.106E+01
DAV: 301    -0.358801762799E+04    0.63470E-01   -0.23550E-01  5888   0.263E-01    0.107E+01
DAV: 302    -0.358801933710E+04   -0.17091E-02   -0.11085E-02  6016   0.942E-02    0.107E+01
DAV: 303    -0.358801843090E+04    0.90620E-03   -0.10381E-03  6144   0.303E-02    0.107E+01
DAV: 304    -0.358802612185E+04   -0.76910E-02   -0.14072E-03  6272   0.373E-02    0.107E+01
DAV: 305    -0.358802674113E+04   -0.61927E-03   -0.17645E-04  6016   0.134E-02    0.107E+01
DAV: 306    -0.358791864403E+04    0.10810E+00   -0.84682E-02  6272   0.341E-01    0.104E+01
DAV: 307    -0.358791078054E+04    0.78635E-02   -0.94403E-03  5888   0.824E-02    0.102E+01
DAV: 308    -0.358787554838E+04    0.35232E-01   -0.35896E-02  6400   0.287E-01    0.748E+00
DAV: 309    -0.358792227208E+04   -0.46724E-01   -0.91239E-01  6400   0.597E-01    0.247E+00
DAV: 310    -0.358800943240E+04   -0.87160E-01   -0.13539E-01  5632   0.364E-01    0.461E+00
DAV: 311    -0.358800463484E+04    0.47976E-02   -0.40777E-02  6400   0.140E-01    0.407E+00
DAV: 312    -0.358800610864E+04   -0.14738E-02   -0.30152E-03  5760   0.470E-02    0.403E+00
DAV: 313    -0.358800821749E+04   -0.21088E-02   -0.41224E-02  7168   0.116E-01    0.475E+00
DAV: 314    -0.358801969825E+04   -0.11481E-01   -0.24323E-02  6144   0.175E-01    0.529E+00
DAV: 315    -0.358801487137E+04    0.48269E-02   -0.43283E-02  7040   0.235E-01    0.381E+00
DAV: 316    -0.358804385138E+04   -0.28980E-01   -0.87715E-02  6528   0.155E-01    0.543E+00
DAV: 317    -0.358802808007E+04    0.15771E-01   -0.25768E-02  6016   0.117E-01    0.594E+00
DAV: 318    -0.358801966606E+04    0.84140E-02   -0.16257E-02  5760   0.127E-01    0.496E+00
DAV: 319    -0.358801722419E+04    0.24419E-02   -0.13860E-02  7296   0.102E-01    0.518E+00
DAV: 320    -0.358801390467E+04    0.33195E-02   -0.41943E-03  6272   0.490E-02    0.505E+00
DAV: 321    -0.358801819610E+04   -0.42914E-02   -0.34004E-03  6272   0.368E-02    0.542E+00
DAV: 322    -0.358802139394E+04   -0.31978E-02   -0.24987E-03  6528   0.436E-02    0.540E+00
DAV: 323    -0.358803172400E+04   -0.10330E-01   -0.13571E-02  6528   0.770E-02    0.472E+00
DAV: 324    -0.358805939185E+04   -0.27668E-01   -0.29630E-02  6528   0.111E-01    0.560E+00
DAV: 325    -0.358806245718E+04   -0.30653E-02   -0.61343E-03  6144   0.737E-02    0.548E+00
DAV: 326    -0.358802492848E+04    0.37529E-01   -0.38237E-01  6784   0.610E-01    0.537E+00
DAV: 327    -0.358803534289E+04   -0.10414E-01   -0.34651E-02  5632   0.170E-01    0.639E+00
DAV: 328    -0.358802505941E+04    0.10283E-01   -0.78051E-02  6400   0.232E-01    0.477E+00
DAV: 329    -0.358804370605E+04   -0.18647E-01   -0.39322E-02  6528   0.139E-01    0.378E+00
DAV: 330    -0.358805448886E+04   -0.10783E-01   -0.10159E-02  5760   0.101E-01    0.368E+00
DAV: 331    -0.358805777874E+04   -0.32899E-02   -0.50939E-02  7040   0.233E-01    0.548E+00
DAV: 332    -0.358804152269E+04    0.16256E-01   -0.33723E-02  6016   0.103E-01    0.413E+00
DAV: 333    -0.358804774946E+04   -0.62268E-02   -0.11851E-02  6656   0.798E-02    0.417E+00
DAV: 334    -0.358804669749E+04    0.10520E-02   -0.35549E-02  6656   0.914E-02    0.343E+00
DAV: 335    -0.358805293652E+04   -0.62390E-02   -0.39517E-02  6400   0.873E-02    0.302E+00
DAV: 336    -0.358800824793E+04    0.44689E-01   -0.34449E+00  6656   0.138E+00    0.891E+00
DAV: 337    -0.358809550437E+04   -0.87256E-01   -0.14521E-01  5632   0.326E-01    0.901E+00
DAV: 338    -0.358805180761E+04    0.43697E-01   -0.74777E-02  6656   0.189E-01    0.871E+00
DAV: 339    -0.358800608453E+04    0.45723E-01   -0.58917E-02  6656   0.138E-01    0.781E+00
DAV: 340    -0.358796909862E+04    0.36986E-01   -0.11216E-01  6912   0.182E-01    0.443E+00
DAV: 341    -0.358801675947E+04   -0.47661E-01   -0.91093E-02  6272   0.285E-01    0.564E+00
DAV: 342    -0.358799699494E+04    0.19765E-01   -0.17531E-01  6272   0.178E-01    0.229E+00
DAV: 343    -0.358802291351E+04   -0.25919E-01   -0.19579E-02  6016   0.109E-01    0.189E+00
DAV: 344    -0.358803187484E+04   -0.89613E-02   -0.82506E-03  5888   0.671E-02    0.200E+00
DAV: 345    -0.358803082625E+04    0.10486E-02   -0.10533E-02  6272   0.675E-02    0.128E+00
DAV: 346    -0.358803559564E+04   -0.47694E-02   -0.31559E-02  6528   0.111E-01    0.138E+00
DAV: 347    -0.358803467512E+04    0.92052E-03   -0.71150E-03  6144   0.634E-02    0.136E+00
DAV: 348    -0.358803271242E+04    0.19627E-02   -0.45458E-03  7040   0.444E-02    0.136E+00
DAV: 349    -0.358803156890E+04    0.11435E-02   -0.37262E-03  6912   0.406E-02    0.144E+00
DAV: 350    -0.358803033873E+04    0.12302E-02   -0.40557E-03  6528   0.408E-02    0.145E+00
DAV: 351    -0.358802940388E+04    0.93485E-03   -0.27379E-03  6272   0.473E-02    0.134E+00
DAV: 352    -0.358803068016E+04   -0.12763E-02   -0.37990E-04  6144   0.144E-02    0.130E+00
DAV: 353    -0.358803199913E+04   -0.13190E-02   -0.53240E-04  6656   0.143E-02    0.124E+00
DAV: 354    -0.358803451015E+04   -0.25110E-02   -0.10166E-02  6400   0.486E-02    0.115E+00
DAV: 355    -0.358803546755E+04   -0.95740E-03   -0.13398E-02  6528   0.551E-02    0.106E+00
DAV: 356    -0.358802739926E+04    0.80683E-02   -0.40957E-02  6528   0.226E-01    0.849E-01
DAV: 357    -0.358802762833E+04   -0.22907E-03   -0.75428E-03  6272   0.672E-02    0.948E-01
DAV: 358    -0.358802733183E+04    0.29650E-03   -0.22496E-03  6272   0.331E-02    0.940E-01
DAV: 359    -0.358802765346E+04   -0.32163E-03   -0.16544E-03  6528   0.280E-02    0.859E-01
DAV: 360    -0.358802841399E+04   -0.76053E-03   -0.37779E-03  6400   0.268E-02    0.823E-01
DAV: 361    -0.358802884265E+04   -0.42867E-03   -0.34107E-03  6528   0.302E-02    0.848E-01
DAV: 362    -0.358802917818E+04   -0.33553E-03   -0.30300E-03  7040   0.252E-02    0.811E-01
DAV: 363    -0.358802917108E+04    0.71002E-05   -0.76263E-04  5888   0.239E-02    0.823E-01
DAV: 364    -0.358802927960E+04   -0.10852E-03   -0.12331E-04  6144   0.802E-03    0.817E-01
DAV: 365    -0.358802666125E+04    0.26183E-02   -0.55731E-02  6272   0.136E-01    0.693E-01
DAV: 366    -0.358800828259E+04    0.18379E-01   -0.31115E-01  6656   0.305E-01    0.454E-01
DAV: 367    -0.358803249373E+04   -0.24211E-01   -0.18698E-02  5632   0.122E-01    0.439E-01
DAV: 368    -0.358803291117E+04   -0.41744E-03   -0.12743E-03  6272   0.203E-02    0.450E-01
DAV: 369    -0.358803242314E+04    0.48802E-03   -0.10419E-02  6528   0.521E-02    0.409E-01
DAV: 370    -0.358803136797E+04    0.10552E-02   -0.27097E-02  6528   0.802E-02    0.299E-01
DAV: 371    -0.358801214290E+04    0.19225E-01   -0.25863E-01  6528   0.305E-01    0.125E+00
DAV: 372    -0.358803179514E+04   -0.19652E-01   -0.15812E-02  5632   0.125E-01    0.582E-01
DAV: 373    -0.358803421547E+04   -0.24203E-02   -0.12271E-03  5760   0.284E-02    0.651E-01
DAV: 374    -0.358803514777E+04   -0.93230E-03   -0.28721E-03  6400   0.502E-02    0.462E-01
DAV: 375    -0.358803425205E+04    0.89572E-03   -0.11285E-02  6400   0.797E-02    0.225E-01
DAV: 376    -0.358803579086E+04   -0.15388E-02   -0.38436E-03  6528   0.396E-02    0.120E-01
DAV: 377    -0.358803716692E+04   -0.13761E-02   -0.66085E-03  6016   0.481E-02    0.177E-01
DAV: 378    -0.358803715423E+04    0.12690E-04   -0.13737E-03  6144   0.269E-02    0.128E-01
DAV: 379    -0.358803741011E+04   -0.25588E-03   -0.61497E-04  6400   0.112E-02    0.116E-01
DAV: 380    -0.358803761145E+04   -0.20134E-03   -0.91189E-04  6400   0.112E-02    0.108E-01
DAV: 381    -0.358803787470E+04   -0.26325E-03   -0.12475E-02  6400   0.473E-02    0.147E-01
DAV: 382    -0.358803853189E+04   -0.65719E-03   -0.45837E-03  6272   0.267E-02    0.103E-01
DAV: 383    -0.358803889956E+04   -0.36766E-03   -0.17730E-04  5632   0.163E-02    0.101E-01
DAV: 384    -0.358803889770E+04    0.18563E-05   -0.11948E-05  5888   0.476E-03    0.975E-02
DAV: 385    -0.358803876306E+04    0.13464E-03   -0.23986E-04  6400   0.855E-03    0.819E-02
DAV: 386    -0.358803872522E+04    0.37841E-04   -0.84605E-05  6144   0.649E-03    0.835E-02
DAV: 387    -0.358803879672E+04   -0.71503E-04   -0.93518E-05  6272   0.556E-03    0.785E-02
DAV: 388    -0.358803908153E+04   -0.28481E-03   -0.27147E-03  6400   0.225E-02    0.124E-01
DAV: 389    -0.358803824220E+04    0.83933E-03   -0.75996E-03  6272   0.392E-02    0.146E-01
DAV: 390    -0.358803884214E+04   -0.59994E-03   -0.53171E-03  6272   0.385E-02    0.156E-01
DAV: 391    -0.358803889566E+04   -0.53524E-04   -0.17144E-02  6272   0.528E-02    0.734E-02
DAV: 392    -0.358803980859E+04   -0.91293E-03   -0.70359E-04  5632   0.293E-02    0.642E-02
DAV: 393    -0.358803976406E+04    0.44534E-04   -0.11670E-04  6144   0.840E-03    0.595E-02
DAV: 394    -0.358803989679E+04   -0.13274E-03   -0.87933E-03  6272   0.405E-02    0.679E-02
DAV: 395    -0.358803819238E+04    0.17044E-02   -0.66269E-02  6272   0.985E-02    0.111E-01
DAV: 396    -0.358804119981E+04   -0.30074E-02   -0.74733E-03  6272   0.436E-02    0.160E-01
DAV: 397    -0.358804176615E+04   -0.56634E-03   -0.99285E-03  6400   0.405E-02    0.114E-01
DAV: 398    -0.358804253517E+04   -0.76902E-03   -0.89662E-03  6528   0.307E-02    0.110E-01
DAV: 399    -0.358804369114E+04   -0.11560E-02   -0.57512E-04  5632   0.226E-02    0.107E-01
DAV: 400    -0.358804388664E+04   -0.19550E-03   -0.13852E-04  5888   0.786E-03    0.107E-01
DAV: 401    -0.358804403024E+04   -0.14360E-03   -0.91175E-04  6400   0.108E-02    0.114E-01
DAV: 402    -0.358804408921E+04   -0.58966E-04   -0.21796E-04  6272   0.136E-02    0.128E-01
DAV: 403    -0.358804376560E+04    0.32361E-03   -0.94570E-03  6272   0.501E-02    0.152E-01
DAV: 404    -0.358804393432E+04   -0.16872E-03   -0.68415E-03  6528   0.312E-02    0.152E-01
DAV: 405    -0.358804496529E+04   -0.10310E-02   -0.49066E-04  5632   0.201E-02    0.151E-01
DAV: 406    -0.358804519989E+04   -0.23461E-03   -0.30315E-04  6400   0.804E-03    0.156E-01
DAV: 407    -0.358804506092E+04    0.13897E-03   -0.16426E-03  6272   0.224E-02    0.137E-01
DAV: 408    -0.358804498493E+04    0.75997E-04   -0.43652E-04  6400   0.922E-03    0.135E-01
DAV: 409    -0.358804503646E+04   -0.51533E-04   -0.89646E-05  5888   0.930E-03    0.136E-01
DAV: 410    -0.358804505677E+04   -0.20310E-04   -0.16297E-04  6272   0.661E-03    0.136E-01
DAV: 411    -0.358804516412E+04   -0.10735E-03   -0.24541E-03  6400   0.316E-02    0.181E-01
DAV: 412    -0.358804540515E+04   -0.24103E-03   -0.46486E-04  5760   0.129E-02    0.180E-01
DAV: 413    -0.358804444433E+04    0.96082E-03   -0.86296E-03  6272   0.469E-02    0.145E-01
DAV: 414    -0.358804412081E+04    0.32353E-03   -0.37309E-03  6656   0.204E-02    0.189E-01
DAV: 415    -0.358804177631E+04    0.23445E-02   -0.21972E-02  6272   0.564E-02    0.206E-01
DAV: 416    -0.358804195890E+04   -0.18259E-03   -0.61132E-02  5760   0.129E-01    0.218E-01
DAV: 417    -0.358804429972E+04   -0.23408E-02   -0.11529E-02  5504   0.740E-02    0.181E-01
DAV: 418    -0.358804441468E+04   -0.11496E-03   -0.27569E-04  6272   0.107E-02    0.191E-01
DAV: 419    -0.358804437496E+04    0.39713E-04   -0.11192E-04  6144   0.590E-03    0.195E-01
DAV: 420    -0.358804422686E+04    0.14811E-03   -0.44625E-04  6400   0.802E-03    0.204E-01
DAV: 421    -0.358804420944E+04    0.17419E-04   -0.12578E-03  6272   0.260E-02    0.191E-01
DAV: 422    -0.358804401788E+04    0.19155E-03   -0.28857E-03  6016   0.307E-02    0.178E-01
DAV: 423    -0.358804313726E+04    0.88062E-03   -0.55958E-03  6016   0.329E-02    0.205E-01
DAV: 424    -0.358804358526E+04   -0.44800E-03   -0.23903E-04  5376   0.180E-02    0.205E-01
DAV: 425    -0.358804336133E+04    0.22393E-03   -0.80139E-04  6400   0.105E-02    0.209E-01
DAV: 426    -0.358804273294E+04    0.62839E-03   -0.57192E-03  5760   0.543E-02    0.106E-01
DAV: 427    -0.358804325559E+04   -0.52265E-03   -0.78838E-04  6144   0.252E-02    0.136E-01
DAV: 428    -0.358804310735E+04    0.14825E-03   -0.11775E-03  6400   0.155E-02    0.155E-01
DAV: 429    -0.358804330740E+04   -0.20005E-03   -0.74930E-04  6400   0.137E-02    0.131E-01
DAV: 430    -0.358804336667E+04   -0.59275E-04   -0.74719E-04  6528   0.120E-02    0.110E-01
DAV: 431    -0.358804290870E+04    0.45797E-03   -0.99509E-03  6016   0.445E-02    0.177E-01
DAV: 432    -0.358804394644E+04   -0.10377E-02   -0.33801E-04  5376   0.216E-02    0.187E-01
DAV: 433    -0.358804405375E+04   -0.10732E-03   -0.16189E-04  6272   0.767E-03    0.198E-01
DAV: 434    -0.358804402569E+04    0.28066E-04   -0.31210E-05  5632   0.271E-03    0.199E-01
DAV: 435    -0.358804400459E+04    0.21100E-04   -0.27870E-04  6144   0.636E-03    0.201E-01
DAV: 436    -0.358803909667E+04    0.49079E-02   -0.59851E-02  5760   0.123E-01    0.145E-01
DAV: 437    -0.358804269731E+04   -0.36006E-02   -0.24842E-03  5120   0.566E-02    0.121E-01
DAV: 438    -0.358804257272E+04    0.12459E-03   -0.73402E-05  5376   0.113E-02    0.119E-01
DAV: 439    -0.358804250803E+04    0.64684E-04   -0.14910E-04  6016   0.663E-03    0.115E-01
DAV: 440    -0.358804243680E+04    0.71236E-04   -0.33554E-03  6016   0.234E-02    0.104E-01
DAV: 441    -0.358803901793E+04    0.34189E-02   -0.11246E-01  5760   0.129E-01    0.136E-01
DAV: 442    -0.358804492653E+04   -0.59086E-02   -0.50679E-03  5120   0.712E-02    0.965E-02
DAV: 443    -0.358804511277E+04   -0.18624E-03   -0.56080E-05  6016   0.758E-03    0.969E-02
DAV: 444    -0.358804512392E+04   -0.11152E-04   -0.25901E-06  5120   0.105E-03    0.971E-02
DAV: 445    -0.358804513646E+04   -0.12540E-04   -0.96255E-06  5760   0.174E-03    0.982E-02
DAV: 446    -0.358804498921E+04    0.14725E-03   -0.29034E-03  6016   0.235E-02    0.890E-02
DAV: 447    -0.358804513162E+04   -0.14241E-03   -0.35841E-03  6528   0.210E-02    0.813E-02
DAV: 448    -0.358804560746E+04   -0.47584E-03   -0.10255E-03  6400   0.135E-02    0.814E-02
DAV: 449    -0.358804590947E+04   -0.30201E-03   -0.53455E-05  5376   0.945E-03    0.813E-02
DAV: 450    -0.358804598661E+04   -0.77139E-04   -0.35567E-05  6016   0.457E-03    0.846E-02
DAV: 451    -0.358804596538E+04    0.21230E-04   -0.54823E-05  6144   0.401E-03    0.801E-02
DAV: 452    -0.358804600811E+04   -0.42737E-04   -0.35711E-06  5632   0.197E-03    0.796E-02
DAV: 453    -0.358804602389E+04   -0.15775E-04   -0.27546E-04  6016   0.833E-03    0.810E-02
DAV: 454    -0.358804595595E+04    0.67935E-04   -0.27743E-04  6400   0.614E-03    0.809E-02
DAV: 455    -0.358804588205E+04    0.73903E-04   -0.16793E-04  5888   0.433E-03    0.796E-02
DAV: 456    -0.358804581556E+04    0.66484E-04   -0.73105E-04  6016   0.142E-02    0.820E-02
DAV: 457    -0.358804591816E+04   -0.10260E-03   -0.16078E-04  5888   0.930E-03    0.772E-02
DAV: 458    -0.358804588074E+04    0.37428E-04   -0.17897E-04  6144   0.596E-03    0.776E-02
DAV: 459    -0.358804587112E+04    0.96192E-05   -0.31171E-05  6016   0.457E-03    0.780E-02
DAV: 460    -0.358804589465E+04   -0.23538E-04   -0.46951E-04  6144   0.995E-03    0.804E-02
DAV: 461    -0.358804549150E+04    0.40316E-03   -0.55828E-03  6016   0.351E-02    0.870E-02
DAV: 462    -0.358804557048E+04   -0.78985E-04   -0.83192E-04  6016   0.235E-02    0.912E-02
DAV: 463    -0.358804559587E+04   -0.25387E-04   -0.14917E-04  6272   0.580E-03    0.904E-02
DAV: 464    -0.358804565763E+04   -0.61760E-04   -0.94147E-06  5504   0.322E-03    0.913E-02
DAV: 465    -0.358804566829E+04   -0.10660E-04   -0.34547E-05  6144   0.272E-03    0.933E-02
DAV: 466    -0.358804536354E+04    0.30475E-03   -0.47469E-03  6016   0.372E-02    0.118E-01
DAV: 467    -0.358804541904E+04   -0.55499E-04   -0.16743E-04  5376   0.151E-02    0.117E-01
DAV: 468    -0.358804536484E+04    0.54208E-04   -0.34691E-05  6016   0.501E-03    0.113E-01
DAV: 469    -0.358804535156E+04    0.13273E-04   -0.34996E-06  5504   0.159E-03    0.113E-01
DAV: 470    -0.358804532655E+04    0.25011E-04   -0.35186E-05  5632   0.265E-03    0.113E-01
DAV: 471    -0.358804527377E+04    0.52779E-04   -0.24471E-03  6016   0.241E-02    0.101E-01
DAV: 472    -0.358804552474E+04   -0.25097E-03   -0.70726E-04  6272   0.147E-02    0.109E-01
DAV: 473    -0.358804542173E+04    0.10302E-03   -0.18055E-03  6144   0.248E-02    0.976E-02
DAV: 474    -0.358804549874E+04   -0.77007E-04   -0.76659E-04  6144   0.124E-02    0.983E-02
DAV: 475    -0.358804569135E+04   -0.19261E-03   -0.44116E-05  5376   0.824E-03    0.983E-02
DAV: 476    -0.358804557297E+04    0.11838E-03   -0.78194E-03  6016   0.417E-02    0.124E-01
DAV: 477    -0.358804597499E+04   -0.40202E-03   -0.25419E-04  5376   0.197E-02    0.121E-01
DAV: 478    -0.358804455462E+04    0.14204E-02   -0.17937E-02  5760   0.594E-02    0.109E-01
DAV: 479    -0.358804368208E+04    0.87254E-03   -0.15312E-02  6528   0.388E-02    0.125E-01
DAV: 480    -0.358804233812E+04    0.13440E-02   -0.24823E-02  6400   0.494E-02    0.142E-01
DAV: 481    -0.358803111251E+04    0.11226E-01   -0.28651E-01  5760   0.255E-01    0.159E-01
DAV: 482    -0.358804397639E+04   -0.12864E-01   -0.22056E-02  5632   0.118E-01    0.114E-01
DAV: 483    -0.358804550534E+04   -0.15290E-02   -0.10564E-03  5248   0.304E-02    0.106E-01
DAV: 484    -0.358804572554E+04   -0.22020E-03   -0.23915E-04  5504   0.143E-02    0.995E-02
DAV: 485    -0.358804542085E+04    0.30469E-03   -0.24347E-03  5888   0.257E-02    0.105E-01
DAV: 486    -0.358803917592E+04    0.62449E-02   -0.87826E-02  5760   0.127E-01    0.177E-01
DAV: 487    -0.358804343279E+04   -0.42569E-02   -0.41379E-03  5120   0.688E-02    0.123E-01
DAV: 488    -0.358804299036E+04    0.44243E-03   -0.44919E-03  6016   0.319E-02    0.939E-02
DAV: 489    -0.358804368199E+04   -0.69163E-03   -0.27689E-04  5248   0.202E-02    0.959E-02
DAV: 490    -0.358804381944E+04   -0.13745E-03   -0.65051E-04  5888   0.176E-02    0.104E-01
DAV: 491    -0.358804391496E+04   -0.95522E-04   -0.42303E-04  6144   0.116E-02    0.824E-02
DAV: 492    -0.358804375607E+04    0.15889E-03   -0.21368E-03  6144   0.207E-02    0.820E-02
DAV: 493    -0.358804377243E+04   -0.16358E-04   -0.84020E-05  5376   0.108E-02    0.801E-02
DAV: 494    -0.358804371819E+04    0.54240E-04   -0.30018E-04  5888   0.105E-02    0.807E-02
DAV: 495    -0.358804358502E+04    0.13317E-03   -0.23300E-03  6016   0.213E-02    0.788E-02
DAV: 496    -0.358804261147E+04    0.97355E-03   -0.25258E-02  5760   0.660E-02    0.919E-02
DAV: 497    -0.358804350989E+04   -0.89842E-03   -0.13952E-02  6656   0.392E-02    0.892E-02
DAV: 498    -0.358804506230E+04   -0.15524E-02   -0.82445E-04  5248   0.282E-02    0.890E-02
DAV: 499    -0.358804533265E+04   -0.27036E-03   -0.20160E-04  6400   0.103E-02    0.930E-02
DAV: 500    -0.358804530977E+04    0.22885E-04   -0.13668E-03  6272   0.166E-02
 -----------------------------------------------------------------------------
|                                                                             |
|           W    W    AA    RRRRR   N    N  II  N    N   GGGG   !!!           |
|           W    W   A  A   R    R  NN   N  II  NN   N  G    G  !!!           |
|           W    W  A    A  R    R  N N  N  II  N N  N  G       !!!           |
|           W WW W  AAAAAA  RRRRR   N  N N  II  N  N N  G  GGG   !            |
|           WW  WW  A    A  R   R   N   NN  II  N   NN  G    G                |
|           W    W  A    A  R    R  N    N  II  N    N   GGGG   !!!           |
|                                                                             |
|     The electronic self-consistency was not achieved in the given           |
|     number of steps (NELM). The forces and other quantities evaluated       |
|     might not be reliable so examine the results carefully. If you find     |
|     spurious results, we suggest increasing NELM, if you were close to      |
|     convergence or switching to a different ALGO or adjusting the           |
|     density mixing parameters otherwise.                                    |
|                                                                             |
 -----------------------------------------------------------------------------

 augmentation electrons   1804.87606229893     
 soft         electrons  0.000000000000000E+000
 total        electrons   1804.87606229893     
 augmentation electrons -4.063248340560535E-002
 soft         electrons  0.000000000000000E+000
 total        electrons -4.063248340560535E-002
 augmentation electrons   1897.59959528426     
 soft         electrons  0.000000000000000E+000
 total        electrons   1897.59959528426     
 augmentation electrons   1840.97656334226     
 soft         electrons  0.000000000000000E+000
 total        electrons   1840.97656334226     
 augmentation electrons   56.1782079263227     
 soft         electrons   1748.69776575026     
 total        electrons   1804.87597367658     
 augmentation electrons   18.3512221719530     
 soft         electrons   1748.69776575026     
 total        electrons   29.0099669497791     
 translations:           0           1           0
   1 F= -.36256672E+04 E0= -.36256564E+04  d E =-.362567E+04  mag=    29.0506
 curvature:   0.00 expect dE= 0.000E+00 dE for cont linesearch  0.000E+00
 trial: gam= 0.00000 g(F)=  0.317E+00 g(S)=  0.000E+00 ort = 0.000E+00 (trialstep = 0.100E+01)
 search vector abs. value=  0.317E+00
 bond charge predicted
       N       E                     dE             d eps       ncg     rms          rms(c)
DAV:   1    -0.358818362594E+04   -0.13829E+00   -0.22216E+01  5248   0.328E+00    0.299E+00
DAV:   2    -0.358830240378E+04   -0.11878E+00   -0.20064E+00  6272   0.111E+00    0.884E+00
DAV:   3    -0.358824520424E+04    0.57200E-01   -0.60994E-01  6272   0.640E-01    0.143E+00
DAV:   4    -0.358827145529E+04   -0.26251E-01   -0.51352E-02  5888   0.221E-01    0.175E+00
DAV:   5    -0.358827049381E+04    0.96148E-03   -0.24810E-02  5888   0.162E-01    0.199E+00
DAV:   6    -0.358826533177E+04    0.51620E-02   -0.10236E-02  5760   0.102E-01    0.479E-01
DAV:   7    -0.358826721091E+04   -0.18791E-02   -0.44660E-03  5632   0.725E-02    0.337E-01
DAV:   8    -0.358826784314E+04   -0.63223E-03   -0.42430E-03  6784   0.609E-02    0.684E-01
DAV:   9    -0.358826710106E+04    0.74208E-03   -0.10505E-03  5632   0.338E-02    0.365E-01
DAV:  10    -0.358826732917E+04   -0.22811E-03   -0.42332E-04  5632   0.176E-02    0.282E-01
DAV:  11    -0.358826763986E+04   -0.31069E-03   -0.15649E-03  6400   0.275E-02    0.213E-01
DAV:  12    -0.358826793682E+04   -0.29696E-03   -0.10162E-03  6144   0.228E-02    0.111E-01
DAV:  13    -0.358826805310E+04   -0.11627E-03   -0.42512E-04  6528   0.850E-03    0.654E-02
DAV:  14    -0.358826818035E+04   -0.12726E-03   -0.41457E-04  6144   0.703E-03    0.533E-02
DAV:  15    -0.358826836587E+04   -0.18552E-03   -0.52841E-03  6272   0.273E-02    0.437E-02
DAV:  16    -0.358826870243E+04   -0.33656E-03   -0.16860E-03  6528   0.141E-02    0.382E-02
DAV:  17    -0.358826893752E+04   -0.23509E-03   -0.12331E-03  6272   0.106E-02    0.365E-02
DAV:  18    -0.358826722975E+04    0.17078E-02   -0.71636E-02  6272   0.102E-01    0.885E-02
DAV:  19    -0.358826984583E+04   -0.26161E-02   -0.97236E-03  6400   0.430E-02    0.521E-02
DAV:  20    -0.358827048615E+04   -0.64032E-03   -0.37192E-03  5888   0.444E-02    0.442E-02
DAV:  21    -0.358826959671E+04    0.88944E-03   -0.64318E-03  6272   0.309E-02    0.492E-02
DAV:  22    -0.358826798813E+04    0.16086E-02   -0.92170E-02  6272   0.131E-01    0.778E-02
DAV:  23    -0.358826703416E+04    0.95397E-03   -0.92356E-02  6400   0.970E-02    0.136E-01
DAV:  24    -0.358827102428E+04   -0.39901E-02   -0.22170E-02  6400   0.577E-02    0.115E-01
DAV:  25    -0.358827299602E+04   -0.19717E-02   -0.55099E-03  6144   0.331E-02    0.129E-01
DAV:  26    -0.358827388917E+04   -0.89315E-03   -0.30727E-04  5632   0.212E-02    0.138E-01
DAV:  27    -0.358827277318E+04    0.11160E-02   -0.14564E-02  6272   0.538E-02    0.728E-02
DAV:  28    -0.358827339384E+04   -0.62066E-03   -0.42532E-04  5760   0.193E-02    0.146E-01
DAV:  29    -0.358827072524E+04    0.26686E-02   -0.32124E-02  6272   0.720E-02    0.163E-01
DAV:  30    -0.358827278635E+04   -0.20611E-02   -0.11143E-02  6144   0.680E-02    0.113E-01
DAV:  31    -0.358827252771E+04    0.25864E-03   -0.15429E-02  6272   0.468E-02    0.546E-02
DAV:  32    -0.358827321353E+04   -0.68582E-03   -0.11153E-02  6528   0.331E-02    0.997E-02
DAV:  33    -0.358827414253E+04   -0.92900E-03   -0.12510E-03  6016   0.233E-02    0.986E-02
DAV:  34    -0.358827436378E+04   -0.22125E-03   -0.14119E-03  6144   0.122E-02    0.114E-01
DAV:  35    -0.358827455079E+04   -0.18700E-03   -0.40489E-03  6272   0.208E-02    0.102E-01
DAV:  36    -0.358827480739E+04   -0.25660E-03   -0.57266E-04  6144   0.144E-02    0.119E-01
DAV:  37    -0.358827482654E+04   -0.19152E-04   -0.34424E-05  5632   0.663E-03    0.119E-01
DAV:  38    -0.358827477405E+04    0.52490E-04   -0.80332E-05  6144   0.435E-03    0.118E-01
DAV:  39    -0.358827494249E+04   -0.16845E-03   -0.36931E-03  6400   0.263E-02    0.928E-02
DAV:  40    -0.358827498197E+04   -0.39472E-04   -0.42649E-04  6144   0.160E-02    0.932E-02
DAV:  41    -0.358827491924E+04    0.62728E-04   -0.12393E-02  6400   0.488E-02    0.943E-02
DAV:  42    -0.358827546803E+04   -0.54879E-03   -0.98301E-04  6272   0.181E-02    0.103E-01
DAV:  43    -0.358827552415E+04   -0.56118E-04   -0.41850E-04  6016   0.155E-02    0.102E-01
DAV:  44    -0.358827561603E+04   -0.91882E-04   -0.13737E-03  6400   0.173E-02    0.795E-02
DAV:  45    -0.358827467261E+04    0.94342E-03   -0.26073E-02  6272   0.686E-02    0.575E-02
DAV:  46    -0.358827602981E+04   -0.13572E-02   -0.34327E-03  6272   0.276E-02    0.481E-02
DAV:  47    -0.358827654865E+04   -0.51884E-03   -0.12577E-03  6016   0.283E-02    0.453E-02
DAV:  48    -0.358827655022E+04   -0.15754E-05   -0.16583E-03  6144   0.200E-02    0.468E-02
DAV:  49    -0.358827667882E+04   -0.12860E-03   -0.91603E-04  6144   0.109E-02    0.430E-02
DAV:  50    -0.358827681660E+04   -0.13778E-03   -0.87557E-04  6016   0.930E-03    0.432E-02
DAV:  51    -0.358827673217E+04    0.84427E-04   -0.25270E-03  6144   0.235E-02    0.716E-02
DAV:  52    -0.358827657225E+04    0.15992E-03   -0.20846E-03  6272   0.195E-02    0.584E-02
DAV:  53    -0.358827666624E+04   -0.93996E-04   -0.30118E-03  6272   0.295E-02    0.658E-02
DAV:  54    -0.358827648752E+04    0.17872E-03   -0.32829E-03  6272   0.299E-02    0.531E-02
DAV:  55    -0.358827601648E+04    0.47104E-03   -0.41016E-03  6144   0.217E-02    0.574E-02
DAV:  56    -0.358827610260E+04   -0.86121E-04   -0.14163E-03  6144   0.133E-02    0.551E-02
DAV:  57    -0.358827563342E+04    0.46917E-03   -0.52252E-03  6144   0.283E-02    0.746E-02
DAV:  58    -0.358827598104E+04   -0.34762E-03   -0.21600E-04  5632   0.170E-02    0.769E-02
DAV:  59    -0.358827596906E+04    0.11985E-04   -0.60868E-05  6016   0.500E-03    0.802E-02
DAV:  60    -0.358827592044E+04    0.48620E-04   -0.12284E-03  6272   0.138E-02    0.101E-01
DAV:  61    -0.358827580726E+04    0.11318E-03   -0.40839E-03  6272   0.244E-02    0.111E-01
DAV:  62    -0.358827612778E+04   -0.32052E-03   -0.12995E-03  5632   0.229E-02    0.143E-01
DAV:  63    -0.358827619949E+04   -0.71704E-04   -0.30661E-05  5888   0.481E-03    0.145E-01
DAV:  64    -0.358827622701E+04   -0.27529E-04   -0.48366E-05  5632   0.238E-03    0.149E-01
DAV:  65    -0.358827623546E+04   -0.84438E-05   -0.14699E-05  5888   0.283E-03    0.149E-01
DAV:  66    -0.358827622599E+04    0.94673E-05   -0.52850E-06  5504   0.791E-04    0.149E-01
DAV:  67    -0.358827447913E+04    0.17469E-02   -0.39382E-02  6016   0.802E-02    0.269E-01
DAV:  68    -0.358827491947E+04   -0.44034E-03   -0.32834E-02  6016   0.966E-02    0.152E-01
DAV:  69    -0.358827603304E+04   -0.11136E-02   -0.23075E-03  5760   0.419E-02    0.163E-01
DAV:  70    -0.358827579362E+04    0.23942E-03   -0.50383E-03  6400   0.299E-02    0.136E-01
DAV:  71    -0.358827613005E+04   -0.33643E-03   -0.33757E-03  6016   0.195E-02    0.974E-02
DAV:  72    -0.358827660571E+04   -0.47566E-03   -0.11736E-03  6144   0.198E-02    0.915E-02
DAV:  73    -0.358827669874E+04   -0.93024E-04   -0.11430E-03  6144   0.136E-02    0.937E-02
DAV:  74    -0.358827675900E+04   -0.60261E-04   -0.25023E-03  6272   0.172E-02    0.835E-02
DAV:  75    -0.358827704592E+04   -0.28692E-03   -0.19676E-03  6272   0.261E-02    0.863E-02
DAV:  76    -0.358827689585E+04    0.15007E-03   -0.10649E-03  6400   0.104E-02    0.798E-02
DAV:  77    -0.358827683085E+04    0.64996E-04   -0.26080E-04  6144   0.594E-03    0.831E-02
DAV:  78    -0.358827674677E+04    0.84080E-04   -0.31078E-04  5888   0.481E-03    0.822E-02
DAV:  79    -0.358827669380E+04    0.52969E-04   -0.14462E-04  5888   0.345E-03    0.833E-02
DAV:  80    -0.358827666302E+04    0.30786E-04   -0.26990E-05  5760   0.344E-03    0.811E-02
DAV:  81    -0.358827663470E+04    0.28315E-04   -0.30844E-04  6144   0.671E-03    0.851E-02
DAV:  82    -0.358827639553E+04    0.23917E-03   -0.28491E-03  6144   0.175E-02    0.795E-02
DAV:  83    -0.358827645848E+04   -0.62949E-04   -0.77403E-05  5632   0.940E-03    0.770E-02
DAV:  84    -0.358827645204E+04    0.64350E-05   -0.34500E-05  6144   0.304E-03    0.762E-02
DAV:  85    -0.358827646808E+04   -0.16037E-04   -0.82416E-05  5888   0.324E-03    0.739E-02
DAV:  86    -0.358827649668E+04   -0.28602E-04   -0.58042E-06  5248   0.235E-03    0.741E-02
DAV:  87    -0.358827645826E+04    0.38420E-04   -0.26551E-03  6400   0.207E-02    0.712E-02
DAV:  88    -0.358827647941E+04   -0.21150E-04   -0.45811E-03  6400   0.343E-02    0.852E-02
DAV:  89    -0.358827646439E+04    0.15024E-04   -0.11837E-04  6016   0.102E-02    0.764E-02
DAV:  90    -0.358827640641E+04    0.57978E-04   -0.14136E-04  6272   0.576E-03    0.684E-02
DAV:  91    -0.358827624892E+04    0.15749E-03   -0.41629E-03  6272   0.284E-02    0.589E-02
DAV:  92    -0.358827512132E+04    0.11276E-02   -0.27806E-02  6016   0.645E-02    0.751E-02
DAV:  93    -0.358827710860E+04   -0.19873E-02   -0.98740E-04  5376   0.313E-02    0.612E-02
DAV:  94    -0.358827733550E+04   -0.22690E-03   -0.26252E-04  6144   0.863E-03    0.609E-02
DAV:  95    -0.358827736721E+04   -0.31709E-04   -0.11892E-03  6272   0.115E-02    0.628E-02
DAV:  96    -0.358827751079E+04   -0.14357E-03   -0.72596E-05  5632   0.841E-03    0.624E-02
DAV:  97    -0.358827749470E+04    0.16089E-04   -0.68178E-05  6272   0.335E-03    0.600E-02
DAV:  98    -0.358827752529E+04   -0.30596E-04   -0.51712E-05  6144   0.392E-03    0.594E-02
DAV:  99    -0.358827750645E+04    0.18841E-04   -0.26084E-05  5888   0.281E-03    0.596E-02
DAV: 100    -0.358827745157E+04    0.54882E-04   -0.17215E-03  6400   0.176E-02    0.623E-02
DAV: 101    -0.358827736032E+04    0.91252E-04   -0.25932E-03  6528   0.172E-02    0.616E-02
DAV: 102    -0.358827740868E+04   -0.48358E-04   -0.13422E-03  6144   0.116E-02    0.606E-02
DAV: 103    -0.358827756511E+04   -0.15643E-03   -0.87229E-05  5376   0.980E-03    0.603E-02
DAV: 104    -0.358827757136E+04   -0.62545E-05   -0.47866E-06  5376   0.110E-03    0.601E-02
DAV: 105    -0.358827756614E+04    0.52212E-05   -0.35637E-06  5120   0.866E-04    0.601E-02
DAV: 106    -0.358827752987E+04    0.36275E-04   -0.40935E-04  6272   0.783E-03    0.611E-02
DAV: 107    -0.358827691155E+04    0.61832E-03   -0.11992E-02  6016   0.423E-02    0.740E-02
DAV: 108    -0.358827764064E+04   -0.72909E-03   -0.32469E-04  5376   0.190E-02    0.701E-02
DAV: 109    -0.358827773794E+04   -0.97294E-04   -0.11583E-04  5760   0.795E-03    0.703E-02
DAV: 110    -0.358827774048E+04   -0.25443E-05   -0.23092E-04  6272   0.634E-03    0.698E-02
DAV: 111    -0.358827767371E+04    0.66772E-04   -0.16721E-03  6144   0.157E-02    0.695E-02
DAV: 112    -0.358827722365E+04    0.45007E-03   -0.57067E-03  5888   0.436E-02    0.711E-02
DAV: 113    -0.358827678640E+04    0.43725E-03   -0.15364E-02  6016   0.652E-02    0.754E-02
DAV: 114    -0.358827668864E+04    0.97758E-04   -0.95420E-03  6144   0.314E-02    0.805E-02
DAV: 115    -0.358827758614E+04   -0.89750E-03   -0.18240E-03  5760   0.214E-02    0.795E-02
DAV: 116    -0.358827798696E+04   -0.40082E-03   -0.19758E-04  5632   0.118E-02    0.784E-02
DAV: 117    -0.358827735440E+04    0.63257E-03   -0.89686E-03  6016   0.471E-02    0.785E-02
DAV: 118    -0.358827804002E+04   -0.68562E-03   -0.21765E-04  5376   0.186E-02    0.764E-02
DAV: 119    -0.358827805358E+04   -0.13564E-04   -0.86394E-05  5760   0.597E-03    0.766E-02
DAV: 120    -0.358827810527E+04   -0.51688E-04   -0.13933E-04  5888   0.635E-03    0.771E-02
DAV: 121    -0.358827806629E+04    0.38986E-04   -0.11489E-04  6144   0.352E-03    0.791E-02
DAV: 122    -0.358827799896E+04    0.67330E-04   -0.43140E-04  6144   0.709E-03    0.785E-02
DAV: 123    -0.358827791149E+04    0.87464E-04   -0.29996E-04  5760   0.107E-02    0.787E-02
DAV: 124    -0.358827792847E+04   -0.16981E-04   -0.44336E-05  6400   0.370E-03    0.780E-02
DAV: 125    -0.358827795945E+04   -0.30975E-04   -0.17027E-05  5376   0.160E-03    0.780E-02
DAV: 126    -0.358827798845E+04   -0.29001E-04   -0.24292E-06  5120   0.123E-03    0.779E-02
DAV: 127    -0.358827545265E+04    0.25358E-02   -0.35123E-02  5760   0.792E-02    0.827E-02
DAV: 128    -0.358827750736E+04   -0.20547E-02   -0.48825E-03  5504   0.493E-02    0.768E-02
DAV: 129    -0.358827759840E+04   -0.91043E-04   -0.31293E-03  5888   0.185E-02    0.889E-02
DAV: 130    -0.358827763458E+04   -0.36178E-04   -0.37260E-03  6016   0.197E-02    0.936E-02
DAV: 131    -0.358827787259E+04   -0.23801E-03   -0.10946E-03  6400   0.135E-02    0.912E-02
DAV: 132    -0.358827707837E+04    0.79422E-03   -0.15343E-02  6016   0.426E-02    0.976E-02
DAV: 133    -0.358827807405E+04   -0.99568E-03   -0.48001E-04  5248   0.217E-02    0.887E-02
DAV: 134    -0.358827816530E+04   -0.91248E-04   -0.31683E-05  5376   0.695E-03    0.905E-02
DAV: 135    -0.358827815996E+04    0.53411E-05   -0.94114E-05  6144   0.494E-03    0.928E-02
DAV: 136    -0.358827815098E+04    0.89771E-05   -0.56667E-04  6016   0.946E-03    0.965E-02
DAV: 137    -0.358827719928E+04    0.95170E-03   -0.97957E-03  6144   0.496E-02    0.144E-01
DAV: 138    -0.358827819493E+04   -0.99566E-03   -0.36833E-03  5760   0.405E-02    0.107E-01
DAV: 139    -0.358827812204E+04    0.72894E-04   -0.37985E-03  5888   0.289E-02    0.114E-01
DAV: 140    -0.358827823334E+04   -0.11130E-03   -0.14320E-03  6400   0.118E-02    0.117E-01
DAV: 141    -0.358827840604E+04   -0.17270E-03   -0.18770E-04  5504   0.136E-02    0.116E-01
DAV: 142    -0.358827829807E+04    0.10797E-03   -0.61348E-04  6016   0.106E-02    0.118E-01
DAV: 143    -0.358827848578E+04   -0.18771E-03   -0.12784E-04  5632   0.897E-03    0.114E-01
DAV: 144    -0.358827847223E+04    0.13550E-04   -0.12701E-06  5248   0.134E-03    0.114E-01
DAV: 145    -0.358827853493E+04   -0.62704E-04   -0.17759E-04  6400   0.626E-03    0.106E-01
DAV: 146    -0.358827809556E+04    0.43937E-03   -0.10548E-02  6144   0.463E-02    0.112E-01
DAV: 147    -0.358827669738E+04    0.13982E-02   -0.40495E-02  5760   0.793E-02    0.967E-02
DAV: 148    -0.358827788556E+04   -0.11882E-02   -0.10433E-02  5632   0.558E-02    0.937E-02
DAV: 149    -0.358827771589E+04    0.16968E-03   -0.25085E-02  5760   0.826E-02    0.642E-02
DAV: 150    -0.358827830398E+04   -0.58809E-03   -0.80654E-03  6272   0.404E-02    0.895E-02
DAV: 151    -0.358827816451E+04    0.13946E-03   -0.12394E-02  5760   0.356E-02    0.968E-02
DAV: 152    -0.358827428516E+04    0.38794E-02   -0.95986E-02  5760   0.112E-01    0.221E-01
DAV: 153    -0.358827903277E+04   -0.47476E-02   -0.32700E-03  5120   0.635E-02    0.205E-01
DAV: 154    -0.358827907223E+04   -0.39458E-04   -0.44567E-04  6144   0.113E-02    0.210E-01
DAV: 155    -0.358827903889E+04    0.33337E-04   -0.24479E-04  5888   0.112E-02    0.210E-01
DAV: 156    -0.358827890666E+04    0.13223E-03   -0.14750E-03  6144   0.162E-02    0.208E-01
DAV: 157    -0.358827738237E+04    0.15243E-02   -0.35592E-02  6016   0.856E-02    0.229E-01
DAV: 158    -0.358827888358E+04   -0.15012E-02   -0.88062E-04  5120   0.357E-02    0.222E-01
DAV: 159    -0.358827885089E+04    0.32684E-04   -0.35087E-04  5888   0.114E-02    0.214E-01
DAV: 160    -0.358827879654E+04    0.54353E-04   -0.12069E-03  5888   0.124E-02    0.200E-01
DAV: 161    -0.358827878907E+04    0.74719E-05   -0.21216E-03  5888   0.153E-02    0.169E-01
DAV: 162    -0.358827408532E+04    0.47037E-02   -0.89142E-02  5760   0.119E-01    0.109E-01
DAV: 163    -0.358827942077E+04   -0.53355E-02   -0.19533E-02  5120   0.857E-02    0.925E-02
DAV: 164    -0.358828009466E+04   -0.67388E-03   -0.32356E-04  5120   0.218E-02    0.891E-02
DAV: 165    -0.358828000598E+04    0.88682E-04   -0.10958E-03  6272   0.131E-02    0.857E-02
DAV: 166    -0.358828008296E+04   -0.76986E-04   -0.20855E-05  5376   0.471E-03    0.861E-02
DAV: 167    -0.358827929579E+04    0.78717E-03   -0.11703E-02  5888   0.439E-02    0.975E-02
DAV: 168    -0.358828010162E+04   -0.80582E-03   -0.25407E-04  5120   0.195E-02    0.960E-02
DAV: 169    -0.358828017287E+04   -0.71256E-04   -0.31017E-05  6016   0.507E-03    0.969E-02
DAV: 170    -0.358827994088E+04    0.23199E-03   -0.33801E-03  5888   0.250E-02    0.834E-02
DAV: 171    -0.358827884941E+04    0.10915E-02   -0.13508E-02  5888   0.467E-02    0.995E-02
DAV: 172    -0.358827910763E+04   -0.25821E-03   -0.43195E-03  5760   0.321E-02    0.120E-01
DAV: 173    -0.358827931672E+04   -0.20910E-03   -0.98533E-03  5760   0.473E-02    0.139E-01
DAV: 174    -0.358827942007E+04   -0.10335E-03   -0.10449E-03  5632   0.216E-02    0.156E-01
DAV: 175    -0.358827956155E+04   -0.14148E-03   -0.25231E-05  5376   0.677E-03    0.155E-01
DAV: 176    -0.358827952398E+04    0.37573E-04   -0.75104E-04  5888   0.104E-02    0.149E-01
DAV: 177    -0.358827891341E+04    0.61056E-03   -0.88239E-03  5760   0.397E-02    0.714E-02
DAV: 178    -0.358827927596E+04   -0.36254E-03   -0.47636E-03  5760   0.443E-02    0.673E-02
DAV: 179    -0.358827937279E+04   -0.96830E-04   -0.57972E-03  5760   0.280E-02    0.741E-02
DAV: 180    -0.358827948939E+04   -0.11661E-03   -0.29515E-03  5888   0.161E-02    0.803E-02
DAV: 181    -0.358827956191E+04   -0.72521E-04   -0.11758E-03  6016   0.139E-02    0.724E-02
DAV: 182    -0.358827969754E+04   -0.13563E-03   -0.86142E-04  5888   0.108E-02    0.937E-02
DAV: 183    -0.358827966058E+04    0.36966E-04   -0.11560E-03  6144   0.143E-02    0.840E-02
DAV: 184    -0.358827974275E+04   -0.82175E-04   -0.30249E-03  6016   0.189E-02    0.848E-02
DAV: 185    -0.358827982027E+04   -0.77515E-04   -0.41683E-03  5888   0.192E-02    0.849E-02
DAV: 186    -0.358828005510E+04   -0.23483E-03   -0.80671E-04  6144   0.135E-02    0.896E-02
DAV: 187    -0.358827990271E+04    0.15239E-03   -0.25288E-03  5760   0.267E-02    0.765E-02
DAV: 188    -0.358828014217E+04   -0.23946E-03   -0.67658E-04  5376   0.162E-02    0.835E-02
DAV: 189    -0.358828017115E+04   -0.28971E-04   -0.25782E-05  5632   0.396E-03    0.823E-02
DAV: 190    -0.358828016573E+04    0.54132E-05   -0.53342E-05  5632   0.289E-03    0.844E-02
DAV: 191    -0.358828017645E+04   -0.10718E-04   -0.76172E-06  5760   0.163E-03    0.860E-02
DAV: 192    -0.358827972165E+04    0.45480E-03   -0.53043E-03  5632   0.311E-02    0.757E-02
DAV: 193    -0.358828035587E+04   -0.63423E-03   -0.27276E-04  5120   0.148E-02    0.736E-02
DAV: 194    -0.358828041682E+04   -0.60949E-04   -0.14775E-04  5760   0.543E-03    0.726E-02
DAV: 195    -0.358828039343E+04    0.23394E-04   -0.52405E-06  5248   0.258E-03    0.724E-02
DAV: 196    -0.358828038509E+04    0.83407E-05   -0.17303E-07  3968   0.601E-04    0.724E-02
DAV: 197    -0.358827574765E+04    0.46374E-02   -0.77528E-02  5760   0.121E-01    0.905E-02
DAV: 198    -0.358827912778E+04   -0.33801E-02   -0.34321E-03  5248   0.529E-02    0.640E-02
DAV: 199    -0.358827933468E+04   -0.20689E-03   -0.17415E-03  5632   0.257E-02    0.682E-02
DAV: 200    -0.358827943503E+04   -0.10035E-03   -0.22765E-03  5760   0.186E-02    0.736E-02
DAV: 201    -0.358827947546E+04   -0.40427E-04   -0.10697E-03  6400   0.104E-02    0.723E-02
DAV: 202    -0.358827927444E+04    0.20102E-03   -0.20739E-03  5888   0.139E-02    0.714E-02
DAV: 203    -0.358827932216E+04   -0.47727E-04   -0.78468E-04  6272   0.102E-02    0.689E-02
DAV: 204    -0.358827922132E+04    0.10084E-03   -0.14179E-03  6144   0.103E-02    0.703E-02
DAV: 205    -0.358827926531E+04   -0.43987E-04   -0.27480E-04  5504   0.152E-02    0.868E-02
DAV: 206    -0.358827923232E+04    0.32988E-04   -0.62594E-04  5632   0.135E-02    0.888E-02
DAV: 207    -0.358827390255E+04    0.53298E-02   -0.13519E-01  5760   0.136E-01    0.231E-01
DAV: 208    -0.358827852360E+04   -0.46210E-02   -0.12972E-02  5760   0.605E-02    0.137E-01
DAV: 209    -0.358827981034E+04   -0.12867E-02   -0.34737E-03  5632   0.254E-02    0.106E-01
DAV: 210    -0.358828024629E+04   -0.43595E-03   -0.19284E-03  6144   0.152E-02    0.115E-01
DAV: 211    -0.358828072198E+04   -0.47569E-03   -0.72017E-04  5632   0.193E-02    0.136E-01
DAV: 212    -0.358827906027E+04    0.16617E-02   -0.20251E-02  5760   0.639E-02    0.733E-02
DAV: 213    -0.358828038654E+04   -0.13263E-02   -0.14382E-03  5632   0.308E-02    0.664E-02
DAV: 214    -0.358828013053E+04    0.25601E-03   -0.28719E-03  5760   0.209E-02    0.695E-02
DAV: 215    -0.358827964604E+04    0.48449E-03   -0.60121E-03  5760   0.271E-02    0.832E-02
DAV: 216    -0.358827846387E+04    0.11822E-02   -0.15215E-02  5632   0.420E-02    0.912E-02
DAV: 217    -0.358826827474E+04    0.10189E-01   -0.16559E-01  5760   0.156E-01    0.178E-01
DAV: 218    -0.358827754289E+04   -0.92681E-02   -0.63738E-03  5120   0.856E-02    0.154E-01
DAV: 219    -0.358827799755E+04   -0.45466E-03   -0.26609E-04  5120   0.169E-02    0.153E-01
DAV: 220    -0.358827801481E+04   -0.17258E-04   -0.54404E-04  6272   0.103E-02    0.149E-01
DAV: 221    -0.358827794136E+04    0.73451E-04   -0.22886E-03  5888   0.198E-02    0.142E-01
DAV: 222    -0.358827644789E+04    0.14935E-02   -0.33711E-02  5760   0.746E-02    0.154E-01
DAV: 223    -0.358827837738E+04   -0.19295E-02   -0.86468E-04  5120   0.346E-02    0.149E-01
DAV: 224    -0.358827853805E+04   -0.16067E-03   -0.11899E-03  5760   0.163E-02    0.140E-01
DAV: 225    -0.358827843931E+04    0.98736E-04   -0.20838E-03  5888   0.183E-02    0.120E-01
DAV: 226    -0.358827863690E+04   -0.19759E-03   -0.65686E-04  6016   0.121E-02    0.104E-01
DAV: 227    -0.358827868516E+04   -0.48262E-04   -0.92908E-04  5888   0.123E-02    0.103E-01
DAV: 228    -0.358827851301E+04    0.17216E-03   -0.21026E-03  5632   0.203E-02    0.105E-01
DAV: 229    -0.358827855428E+04   -0.41275E-04   -0.57141E-03  5760   0.432E-02    0.102E-01
DAV: 230    -0.358827777564E+04    0.77864E-03   -0.16273E-02  5888   0.474E-02    0.104E-01
DAV: 231    -0.358827696765E+04    0.80799E-03   -0.27794E-02  5760   0.520E-02    0.112E-01
DAV: 232    -0.358827820928E+04   -0.12416E-02   -0.68857E-03  5888   0.356E-02    0.116E-01
DAV: 233    -0.358827883962E+04   -0.63034E-03   -0.32802E-04  5120   0.202E-02    0.113E-01
DAV: 234    -0.358827866427E+04    0.17534E-03   -0.21819E-03  6016   0.161E-02    0.120E-01
DAV: 235    -0.358827865658E+04    0.76911E-05   -0.53223E-04  6144   0.935E-03    0.119E-01
DAV: 236    -0.358827840097E+04    0.25561E-03   -0.43758E-03  5760   0.216E-02    0.118E-01
DAV: 237    -0.358827235121E+04    0.60498E-02   -0.15028E-01  5760   0.159E-01    0.125E-01
DAV: 238    -0.358827882089E+04   -0.64697E-02   -0.36096E-03  5120   0.638E-02    0.102E-01
DAV: 239    -0.358827938384E+04   -0.56296E-03   -0.99050E-05  5120   0.141E-02    0.101E-01
DAV: 240    -0.358827940941E+04   -0.25564E-04   -0.14766E-04  6400   0.499E-03    0.101E-01
DAV: 241    -0.358827944569E+04   -0.36281E-04   -0.27124E-05  5504   0.465E-03    0.101E-01
DAV: 242    -0.358827842732E+04    0.10184E-02   -0.16322E-02  5632   0.535E-02    0.108E-01
DAV: 243    -0.358827798863E+04    0.43869E-03   -0.22862E-02  5760   0.592E-02    0.123E-01
DAV: 244    -0.358828006436E+04   -0.20757E-02   -0.17528E-03  5120   0.437E-02    0.125E-01
DAV: 245    -0.358828005865E+04    0.57136E-05   -0.12561E-04  5760   0.508E-03    0.125E-01
DAV: 246    -0.358828008728E+04   -0.28632E-04   -0.68620E-05  5760   0.569E-03    0.125E-01
DAV: 247    -0.358828014458E+04   -0.57295E-04   -0.15541E-03  6144   0.166E-02    0.107E-01
DAV: 248    -0.358828025329E+04   -0.10871E-03   -0.40048E-05  5376   0.776E-03    0.107E-01
DAV: 249    -0.358828013098E+04    0.12231E-03   -0.64869E-04  5760   0.118E-02    0.107E-01
DAV: 250    -0.358828008529E+04    0.45694E-04   -0.25426E-04  5888   0.486E-03    0.107E-01
DAV: 251    -0.358828016900E+04   -0.83714E-04   -0.30666E-04  5760   0.962E-03    0.106E-01
DAV: 252    -0.358827937445E+04    0.79456E-03   -0.13223E-02  5888   0.530E-02    0.118E-01
DAV: 253    -0.358828043329E+04   -0.10588E-02   -0.10481E-03  5120   0.270E-02    0.109E-01
DAV: 254    -0.358828050628E+04   -0.72997E-04   -0.12213E-04  5632   0.848E-03    0.109E-01
DAV: 255    -0.358828048499E+04    0.21290E-04   -0.32035E-05  5760   0.344E-03    0.109E-01
DAV: 256    -0.358828050213E+04   -0.17134E-04   -0.28244E-05  5760   0.261E-03    0.104E-01
DAV: 257    -0.358827478328E+04    0.57188E-02   -0.85311E-02  5760   0.112E-01    0.284E-01
DAV: 258    -0.358827783895E+04   -0.30557E-02   -0.70615E-02  5760   0.122E-01    0.273E-01
DAV: 259    -0.358828120727E+04   -0.33683E-02   -0.38463E-03  5248   0.619E-02    0.269E-01
DAV: 260    -0.358828113113E+04    0.76136E-04   -0.14708E-04  5504   0.907E-03    0.276E-01
DAV: 261    -0.358828105179E+04    0.79343E-04   -0.79745E-06  5504   0.358E-03    0.276E-01
DAV: 262    -0.358827880114E+04    0.22507E-02   -0.28178E-02  5760   0.803E-02    0.300E-01
DAV: 263    -0.358827436709E+04    0.44340E-02   -0.76012E-02  5888   0.120E-01    0.145E-01
DAV: 264    -0.358827849342E+04   -0.41263E-02   -0.68938E-03  5376   0.578E-02    0.129E-01
DAV: 265    -0.358827867171E+04   -0.17830E-03   -0.72969E-03  5888   0.358E-02    0.112E-01
DAV: 266    -0.358827992598E+04   -0.12543E-02   -0.34281E-04  5120   0.223E-02    0.112E-01
DAV: 267    -0.358828014623E+04   -0.22025E-03   -0.34390E-03  5888   0.268E-02    0.737E-02
DAV: 268    -0.358828046371E+04   -0.31748E-03   -0.11872E-03  5376   0.188E-02    0.814E-02
DAV: 269    -0.358828023198E+04    0.23173E-03   -0.26115E-04  5376   0.113E-02    0.805E-02
DAV: 270    -0.358828031219E+04   -0.80208E-04   -0.14209E-04  5632   0.649E-03    0.866E-02
DAV: 271    -0.358828033547E+04   -0.23282E-04   -0.49734E-05  6016   0.336E-03    0.870E-02
DAV: 272    -0.358827946161E+04    0.87386E-03   -0.72138E-03  5760   0.360E-02    0.774E-02
DAV: 273    -0.358827702215E+04    0.24395E-02   -0.37152E-02  5760   0.727E-02    0.865E-02
DAV: 274    -0.358827875200E+04   -0.17298E-02   -0.10775E-02  6144   0.397E-02    0.822E-02
DAV: 275    -0.358828106251E+04   -0.23105E-02   -0.43247E-03  5504   0.534E-02    0.717E-02
DAV: 276    -0.358828110006E+04   -0.37553E-04   -0.25637E-04  6528   0.652E-03    0.729E-02
DAV: 277    -0.358828026011E+04    0.83995E-03   -0.59464E-03  5760   0.328E-02    0.786E-02
DAV: 278    -0.358828067523E+04   -0.41512E-03   -0.78014E-04  5632   0.173E-02    0.675E-02
DAV: 279    -0.358828076063E+04   -0.85399E-04   -0.60938E-04  5632   0.136E-02    0.626E-02
DAV: 280    -0.358828068419E+04    0.76435E-04   -0.16125E-03  5760   0.167E-02    0.613E-02
DAV: 281    -0.358828048432E+04    0.19987E-03   -0.28628E-03  5888   0.193E-02    0.639E-02
DAV: 282    -0.358827362907E+04    0.68553E-02   -0.12933E-01  5760   0.137E-01    0.994E-02
DAV: 283    -0.358828069570E+04   -0.70666E-02   -0.19003E-02  5504   0.105E-01    0.563E-02
DAV: 284    -0.358828063691E+04    0.58794E-04   -0.64287E-03  5632   0.274E-02    0.681E-02
DAV: 285    -0.358828156226E+04   -0.92535E-03   -0.31040E-04  5120   0.170E-02    0.656E-02
DAV: 286    -0.358828166665E+04   -0.10440E-03   -0.49612E-05  5504   0.619E-03    0.648E-02
DAV: 287    -0.358828161415E+04    0.52505E-04   -0.73598E-04  5632   0.142E-02    0.684E-02
DAV: 288    -0.358828104263E+04    0.57152E-03   -0.43369E-03  5760   0.276E-02    0.712E-02
DAV: 289    -0.358827987588E+04    0.11667E-02   -0.10761E-02  5760   0.347E-02    0.850E-02
DAV: 290    -0.358827616799E+04    0.37079E-02   -0.46898E-02  5760   0.660E-02    0.124E-01
DAV: 291    -0.358827829799E+04   -0.21300E-02   -0.65836E-03  5760   0.350E-02    0.116E-01
DAV: 292    -0.358827185135E+04    0.64466E-02   -0.93783E-02  5888   0.126E-01    0.203E-01
DAV: 293    -0.358827753306E+04   -0.56817E-02   -0.31777E-03  5120   0.602E-02    0.188E-01
DAV: 294    -0.358827757361E+04   -0.40549E-04   -0.55515E-03  6272   0.279E-02    0.193E-01
DAV: 295    -0.358827765276E+04   -0.79146E-04   -0.46752E-03  6400   0.191E-02    0.197E-01
DAV: 296    -0.358827785985E+04   -0.20709E-03   -0.17026E-03  6016   0.154E-02    0.193E-01
DAV: 297    -0.358827769062E+04    0.16922E-03   -0.16218E-03  5760   0.173E-02    0.202E-01
DAV: 298    -0.358827781413E+04   -0.12351E-03   -0.12475E-04  5632   0.101E-02    0.203E-01
DAV: 299    -0.358827771851E+04    0.95627E-04   -0.16167E-04  6272   0.517E-03    0.209E-01
DAV: 300    -0.358827778375E+04   -0.65243E-04   -0.42481E-05  5888   0.502E-03    0.208E-01
DAV: 301    -0.358827780502E+04   -0.21266E-04   -0.21773E-04  6016   0.573E-03    0.210E-01
DAV: 302    -0.358827466621E+04    0.31388E-02   -0.29816E-02  5760   0.747E-02    0.281E-01
DAV: 303    -0.358827624147E+04   -0.15753E-02   -0.19963E-03  5376   0.341E-02    0.283E-01
DAV: 304    -0.358827657229E+04   -0.33082E-03   -0.20906E-03  5760   0.185E-02    0.262E-01
DAV: 305    -0.358827691811E+04   -0.34582E-03   -0.43230E-03  6144   0.232E-02    0.226E-01
DAV: 306    -0.358827767502E+04   -0.75691E-03   -0.28510E-03  6144   0.221E-02    0.155E-01
DAV: 307    -0.358827827607E+04   -0.60105E-03   -0.92894E-04  6272   0.143E-02    0.136E-01
DAV: 308    -0.358827835014E+04   -0.74062E-04   -0.23072E-03  6144   0.193E-02    0.147E-01
DAV: 309    -0.358827850232E+04   -0.15218E-03   -0.75937E-05  5120   0.982E-03    0.147E-01
DAV: 310    -0.358827849992E+04    0.23937E-05   -0.52983E-06  5504   0.205E-03    0.147E-01
DAV: 311    -0.358827825856E+04    0.24137E-03   -0.87636E-04  6272   0.111E-02    0.153E-01
DAV: 312    -0.358827754792E+04    0.71063E-03   -0.71615E-03  5888   0.354E-02    0.187E-01
DAV: 313    -0.358827783075E+04   -0.28283E-03   -0.10797E-03  5632   0.235E-02    0.153E-01
DAV: 314    -0.358827779193E+04    0.38823E-04   -0.57979E-04  6144   0.964E-03    0.138E-01
DAV: 315    -0.358827777179E+04    0.20132E-04   -0.34251E-04  5888   0.669E-03    0.136E-01
DAV: 316    -0.358827778121E+04   -0.94124E-05   -0.42361E-05  5632   0.594E-03    0.135E-01
DAV: 317    -0.358827733462E+04    0.44659E-03   -0.90792E-03  5760   0.364E-02    0.172E-01
DAV: 318    -0.358827785074E+04   -0.51612E-03   -0.39086E-04  5248   0.193E-02    0.154E-01
DAV: 319    -0.358827786176E+04   -0.11026E-04   -0.12734E-03  5760   0.134E-02    0.148E-01
DAV: 320    -0.358827801713E+04   -0.15536E-03   -0.99231E-04  5760   0.941E-03    0.146E-01
DAV: 321    -0.358827819096E+04   -0.17384E-03   -0.25571E-04  5248   0.135E-02    0.144E-01
[...]
DAV:  10    -0.359057983740E+04   -0.12989E-03   -0.94336E-05  6016   0.143E-02    0.869E-02
DAV:  11    -0.359057991251E+04   -0.75113E-04   -0.84300E-05  5888   0.844E-03    0.413E-02
DAV:  12    -0.359057993948E+04   -0.26976E-04   -0.44081E-05  6272   0.401E-03    0.546E-02
DAV:  13    -0.359057994500E+04   -0.55132E-05   -0.60175E-05  6912   0.501E-03    0.197E-02
DAV:  14    -0.359057995422E+04   -0.92203E-05   -0.35021E-05  6016   0.204E-03    0.159E-02
DAV:  15    -0.359057995398E+04    0.23635E-06   -0.16457E-06  5120   0.135E-03
 augmentation electrons   1804.89127098307     
 soft         electrons  0.000000000000000E+000
 total        electrons   1804.89127098307     
 augmentation electrons -3.421970717239123E-002
 soft         electrons  0.000000000000000E+000
 total        electrons -3.421970717239123E-002
 augmentation electrons   1937.93185118884     
 soft         electrons  0.000000000000000E+000
 total        electrons   1937.93185118884     
 augmentation electrons   1881.30881924684     
 soft         electrons  0.000000000000000E+000
 total        electrons   1881.30881924684     
 augmentation electrons   56.2272424798664     
 soft         electrons   1748.66400171149     
 total        electrons   1804.89124419136     
 augmentation electrons   17.2761962788953     
 soft         electrons   1748.66400171149     
 total        electrons   27.1317915668282     
 translations:           0           1           0
 136 F= -.36281888E+04 E0= -.36281783E+04  d E =-.823626E-03  mag=    27.1660
 trial-energy change:   -0.000824  1 .order   -0.000495   -0.000612   -0.000379
 step:   0.5878(harm=  0.5878)  dis= 0.00111  next Energy= -3628.188732 (dE=-0.804E-03)
 bond charge predicted
       N       E                     dE             d eps       ncg     rms          rms(c)
DAV:   1    -0.359057993901E+04    0.15203E-04   -0.10665E-01  5760   0.404E-01    0.497E-01
DAV:   2    -0.359058037055E+04   -0.43154E-03   -0.22820E-02  6272   0.208E-01    0.133E+00
DAV:   3    -0.359057991903E+04    0.45152E-03   -0.10377E-02  5760   0.136E-01    0.707E-01
DAV:   4    -0.359057935943E+04    0.55960E-03   -0.15693E-03  6016   0.433E-02    0.319E-01
DAV:   5    -0.359057988632E+04   -0.52688E-03   -0.42193E-04  6016   0.226E-02    0.225E-01
DAV:   6    -0.359058001957E+04   -0.13325E-03   -0.15733E-04  5888   0.165E-02    0.457E-02
DAV:   7    -0.359058015201E+04   -0.13244E-03   -0.71036E-05  5888   0.889E-03    0.828E-02
DAV:   8    -0.359058015617E+04   -0.41580E-05   -0.12177E-04  6528   0.979E-03    0.288E-02
DAV:   9    -0.359058017219E+04   -0.16016E-04   -0.31793E-05  6400   0.526E-03    0.337E-02
DAV:  10    -0.359058017368E+04   -0.14947E-05   -0.11897E-05  5504   0.217E-03    0.211E-02
DAV:  11    -0.359058018004E+04   -0.63586E-05   -0.22615E-05  6016   0.226E-03    0.219E-02
DAV:  12    -0.359058018320E+04   -0.31581E-05   -0.81801E-06  5504   0.133E-03    0.256E-02
DAV:  13    -0.359058016911E+04    0.14087E-04   -0.56557E-05  6400   0.297E-03    0.433E-02
DAV:  14    -0.359058011019E+04    0.58920E-04   -0.58149E-04  6528   0.637E-03    0.704E-02
DAV:  15    -0.359058008062E+04    0.29571E-04   -0.51202E-04  6784   0.497E-03    0.659E-02
DAV:  16    -0.359058008570E+04   -0.50814E-05   -0.17010E-04  6528   0.411E-03    0.366E-02
DAV:  17    -0.359058009200E+04   -0.62934E-05   -0.69723E-05  6400   0.222E-03    0.465E-02
DAV:  18    -0.359058009031E+04    0.16824E-05   -0.21365E-04  6400   0.437E-03    0.164E-01
DAV:  19    -0.359058006215E+04    0.28166E-04   -0.39354E-04  6144   0.829E-03    0.112E-01
DAV:  20    -0.359058006955E+04   -0.74058E-05   -0.10639E-04  6016   0.431E-03    0.812E-02
DAV:  21    -0.359058005389E+04    0.15660E-04   -0.41113E-04  6656   0.537E-03    0.593E-02
DAV:  22    -0.359058005128E+04    0.26142E-05   -0.48983E-04  6528   0.544E-03    0.487E-02
DAV:  23    -0.359058007113E+04   -0.19854E-04   -0.48565E-05  5760   0.306E-03    0.190E-02
DAV:  24    -0.359058007355E+04   -0.24179E-05   -0.11531E-04  6144   0.282E-03    0.399E-02
DAV:  25    -0.359058007399E+04   -0.43972E-06   -0.20532E-05  6016   0.270E-03    0.914E-03
DAV:  26    -0.359058006943E+04    0.45594E-05   -0.21123E-04  6272   0.427E-03    0.485E-02
DAV:  27    -0.359058007183E+04   -0.23976E-05   -0.17522E-05  5248   0.341E-03    0.871E-03
DAV:  28    -0.359058007647E+04   -0.46402E-05   -0.42895E-06  5376   0.135E-03    0.133E-02
DAV:  29    -0.359058007656E+04   -0.90266E-07   -0.10859E-06  5376   0.435E-04
 augmentation electrons   1804.89212125239     
 soft         electrons  0.000000000000000E+000
 total        electrons   1804.89212125239     
 augmentation electrons -3.425749518253560E-002
 soft         electrons  0.000000000000000E+000
 total        electrons -3.425749518253560E-002
 augmentation electrons   1936.85160519389     
 soft         electrons  0.000000000000000E+000
 total        electrons   1936.85160519389     
 augmentation electrons   1880.22857325189     
 soft         electrons  0.000000000000000E+000
 total        electrons   1880.22857325189     
 augmentation electrons   56.2279604464311     
 soft         electrons   1748.66413419730     
 total        electrons   1804.89209464373     
 augmentation electrons   17.2769233055148     
 soft         electrons   1748.66413419730     
 total        electrons   27.1328640192041     
 translations:           0           1           0
 137 F= -.36281890E+04 E0= -.36281786E+04  d E =-.106924E-02  mag=    27.1671
 curvature:  -1.46 expect dE=-0.472E-02 dE for cont linesearch -0.137E-06
 trial: gam= 0.98345 g(F)=  0.325E-02 g(S)=  0.000E+00 ort = 0.357E-04 (trialstep = 0.245E+00)
 search vector abs. value=  0.164E-01
 bond charge predicted
       N       E                     dE             d eps       ncg     rms          rms(c)
DAV:   1    -0.359058057560E+04   -0.49913E-03   -0.58498E-02  5760   0.299E-01    0.367E-01
DAV:   2    -0.359058111324E+04   -0.53764E-03   -0.14001E-02  6272   0.159E-01    0.117E+00
DAV:   3    -0.359057983972E+04    0.12735E-02   -0.79147E-03  5760   0.113E-01    0.409E-01
DAV:   4    -0.359058015926E+04   -0.31954E-03   -0.76136E-04  5760   0.271E-02    0.174E-01
DAV:   5    -0.359058051674E+04   -0.35748E-03   -0.17477E-04  5760   0.158E-02    0.108E-01
DAV:   6    -0.359058058553E+04   -0.68792E-04   -0.79022E-05  6016   0.105E-02    0.269E-02
DAV:   7    -0.359058062314E+04   -0.37607E-04   -0.23615E-05  5632   0.598E-03    0.810E-02
DAV:   8    -0.359058060802E+04    0.15119E-04   -0.17142E-05  6272   0.724E-03    0.188E-02
DAV:   9    -0.359058061611E+04   -0.80883E-05   -0.95120E-06  6144   0.396E-03    0.274E-02
DAV:  10    -0.359058061611E+04   -0.44529E-08   -0.44646E-06  5888   0.274E-03
 augmentation electrons   1804.89314961143     
 soft         electrons  0.000000000000000E+000
 total        electrons   1804.89314961143     
 augmentation electrons -3.425001512317265E-002
 soft         electrons  0.000000000000000E+000
 total        electrons -3.425001512317265E-002
 augmentation electrons   1935.96314624395     
 soft         electrons  0.000000000000000E+000
 total        electrons   1935.96314624395     
 augmentation electrons   1879.34011430195     
 soft         electrons  0.000000000000000E+000
 total        electrons   1879.34011430195     
 augmentation electrons   56.2288505473093     
 soft         electrons   1748.66427259823     
 total        electrons   1804.89312314554     
 augmentation electrons   17.2782568729755     
 soft         electrons   1748.66427259823     
 total        electrons   27.1350238112658     
 translations:           0           1           0
 138 F= -.36281897E+04 E0= -.36281793E+04  d E =-.665730E-03  mag=    27.1693
 trial-energy change:   -0.000666  1 .order   -0.000584   -0.000802   -0.000366
 step:   0.3267(harm=  0.4498)  dis= 0.00064  next Energy= -3628.189728 (dE=-0.730E-03)
 bond charge predicted
       N       E                     dE             d eps       ncg     rms          rms(c)
DAV:   1    -0.359058120962E+04   -0.59351E-03   -0.66778E-03  6400   0.105E-01    0.561E-01
DAV:   2    -0.359058140420E+04   -0.19457E-03   -0.26991E-02  6400   0.222E-01    0.179E+00
DAV:   3    -0.359057938451E+04    0.20197E-02   -0.14008E-02  5888   0.152E-01    0.779E-01
DAV:   4    -0.359057939586E+04   -0.11350E-04   -0.20812E-03  6016   0.442E-02    0.182E-01
DAV:   5    -0.359058054098E+04   -0.11451E-02   -0.47519E-04  5632   0.222E-02    0.229E-01
DAV:   6    -0.359058059652E+04   -0.55541E-04   -0.67936E-05  6272   0.119E-02    0.147E-01
DAV:   7    -0.359058064006E+04   -0.43535E-04   -0.33375E-05  5888   0.689E-03    0.132E-01
DAV:   8    -0.359058065625E+04   -0.16193E-04   -0.95883E-06  5760   0.433E-03    0.105E-01
DAV:   9    -0.359058066635E+04   -0.10100E-04   -0.79080E-06  6016   0.410E-03    0.544E-02
DAV:  10    -0.359058069070E+04   -0.24353E-04   -0.80800E-06  5888   0.361E-03    0.481E-02
DAV:  11    -0.359058069513E+04   -0.44213E-05   -0.43084E-06  5760   0.316E-03    0.203E-02
DAV:  12    -0.359058069956E+04   -0.44397E-05   -0.38407E-06  5632   0.223E-03    0.524E-03
DAV:  13    -0.359058070129E+04   -0.17210E-05   -0.14105E-06  5120   0.107E-03    0.356E-03
DAV:  14    -0.359058070136E+04   -0.71857E-07   -0.70267E-08  3968   0.229E-04
 augmentation electrons   1804.89357036838     
 soft         electrons  0.000000000000000E+000
 total        electrons   1804.89357036838     
 augmentation electrons -3.423565646214459E-002
 soft         electrons  0.000000000000000E+000
 total        electrons -3.423565646214459E-002
 augmentation electrons   1935.65288076414     
 soft         electrons  0.000000000000000E+000
 total        electrons   1935.65288076414     
 augmentation electrons   1879.02984882214     
 soft         electrons  0.000000000000000E+000
 total        electrons   1879.02984882214     
 augmentation electrons   56.2290223942506     
 soft         electrons   1748.66452155867     
 total        electrons   1804.89354395292     
 augmentation electrons   17.2778615887627     
 soft         electrons   1748.66452155867     
 total        electrons   27.1337006219462     
 translations:           0           1           0
 139 F= -.36281898E+04 E0= -.36281795E+04  d E =-.834880E-03  mag=    27.1679
 curvature:  -0.72 expect dE=-0.114E-02 dE for cont linesearch -0.344E-04
 ZBRENT: increasing intervall
 opt :   0.4909  next Energy= -3628.189877 (dE=-0.880E-03)
 bond charge predicted
       N       E                     dE             d eps       ncg     rms          rms(c)
DAV:   1    -0.359058062320E+04    0.78085E-04   -0.26420E-02  6016   0.201E-01    0.117E-01
DAV:   2    -0.359058077625E+04   -0.15305E-03   -0.20551E-03  6272   0.591E-02    0.339E-01
DAV:   3    -0.359058065528E+04    0.12097E-03   -0.66440E-04  5888   0.376E-02    0.134E-01
DAV:   4    -0.359058067975E+04   -0.24470E-04   -0.13577E-04  6144   0.131E-02    0.602E-02
DAV:   5    -0.359058073071E+04   -0.50962E-04   -0.59746E-05  5632   0.104E-02    0.641E-02
DAV:   6    -0.359058072354E+04    0.71698E-05   -0.11747E-05  5760   0.481E-03    0.310E-02
DAV:   7    -0.359058072729E+04   -0.37523E-05   -0.83610E-06  5632   0.375E-03    0.389E-02
DAV:   8    -0.359058072757E+04   -0.27506E-06   -0.95126E-06  5888   0.384E-03
 augmentation electrons   1804.89428127577     
 soft         electrons  0.000000000000000E+000
 total        electrons   1804.89428127577     
 augmentation electrons -3.426944185379917E-002
 soft         electrons  0.000000000000000E+000
 total        electrons -3.426944185379917E-002
 augmentation electrons   1935.01504382831     
 soft         electrons  0.000000000000000E+000
 total        electrons   1935.01504382831     
 augmentation electrons   1878.39201188631     
 soft         electrons  0.000000000000000E+000
 total        electrons   1878.39201188631     
 augmentation electrons   56.2292081438731     
 soft         electrons   1748.66504682064     
 total        electrons   1804.89425496451     
 augmentation electrons   17.2798299590372     
 soft         electrons   1748.66504682064     
 total        electrons   27.1365427425196     
 translations:           0           1           0
 140 F= -.36281900E+04 E0= -.36281798E+04  d E =-.104680E-02  mag=    27.1708
 curvature:  -0.94 expect dE=-0.259E-02 dE for cont linesearch -0.242E-05
 trial: gam= 0.89514 g(F)=  0.274E-02 g(S)=  0.000E+00 ort =-0.205E-03 (trialstep = 0.294E+00)
 search vector abs. value=  0.155E-01
 bond charge predicted
       N       E                     dE             d eps       ncg     rms          rms(c)
DAV:   1    -0.359058697276E+04   -0.62455E-02   -0.82987E-02  6400   0.364E-01    0.223E+00
DAV:   2    -0.359057802997E+04    0.89428E-02   -0.54874E-01  6528   0.900E-01    0.380E+00
DAV:   3    -0.359059824431E+04   -0.20214E-01   -0.14552E-01  6016   0.447E-01    0.224E+00
DAV:   4    -0.359058896492E+04    0.92794E-02   -0.26752E-02  5888   0.200E-01    0.160E+00
DAV:   5    -0.359058560686E+04    0.33581E-02   -0.11454E-02  6400   0.136E-01    0.194E+00
DAV:   6    -0.359058223416E+04    0.33727E-02   -0.71119E-03  5888   0.104E-01    0.138E+00
DAV:   7    -0.359058067997E+04    0.15542E-02   -0.26805E-03  6400   0.839E-02    0.881E-01
DAV:   8    -0.359058079653E+04   -0.11656E-03   -0.19821E-03  5888   0.526E-02    0.700E-01
DAV:   9    -0.359058118734E+04   -0.39081E-03   -0.52565E-04  6016   0.210E-02    0.682E-01
DAV:  10    -0.359058075429E+04    0.43305E-03   -0.28204E-04  6400   0.266E-02    0.522E-01
DAV:  11    -0.359058066478E+04    0.89505E-04   -0.42659E-04  6016   0.266E-02    0.289E-01
DAV:  12    -0.359058101244E+04   -0.34766E-03   -0.40380E-04  6016   0.267E-02    0.971E-02
DAV:  13    -0.359058123558E+04   -0.22314E-03   -0.23025E-04  5888   0.163E-02    0.633E-02
DAV:  14    -0.359058127004E+04   -0.34455E-04   -0.46197E-05  5760   0.796E-03    0.262E-02
DAV:  15    -0.359058127831E+04   -0.82788E-05   -0.13510E-05  6272   0.484E-03    0.355E-02
DAV:  16    -0.359058127635E+04    0.19618E-05   -0.72767E-06  5760   0.255E-03    0.252E-02
DAV:  17    -0.359058127640E+04   -0.50160E-07   -0.55884E-06  5504   0.168E-03
 augmentation electrons   1804.89556877816     
 soft         electrons  0.000000000000000E+000
 total        electrons   1804.89556877816     
 augmentation electrons -3.422913061935091E-002
 soft         electrons  0.000000000000000E+000
 total        electrons -3.422913061935091E-002
 augmentation electrons   1933.82959234537     
 soft         electrons  0.000000000000000E+000
 total        electrons   1933.82959234537     
 augmentation electrons   1877.20656040337     
 soft         electrons  0.000000000000000E+000
 total        electrons   1877.20656040337     
 augmentation electrons   56.2307990598430     
 soft         electrons   1748.66474362138     
 total        electrons   1804.89554268122     
 augmentation electrons   17.2783538824420     
 soft         electrons   1748.66474362138     
 total        electrons   27.1337364985362     
 translations:           0           1           0
 141 F= -.36281906E+04 E0= -.36281803E+04  d E =-.576761E-03  mag=    27.1680
 trial-energy change:   -0.000577  1 .order   -0.000551   -0.000752   -0.000349
 step:   0.4530(harm=  0.5481)  dis= 0.00090  next Energy= -3628.190720 (dE=-0.675E-03)
 bond charge predicted
       N       E                     dE             d eps       ncg     rms          rms(c)
DAV:   1    -0.359058131845E+04   -0.42095E-04   -0.23655E-02  6272   0.190E-01    0.110E-01
DAV:   2    -0.359058138259E+04   -0.64144E-04   -0.17694E-03  6144   0.501E-02    0.234E-01
DAV:   3    -0.359058140818E+04   -0.25587E-04   -0.45958E-04  6144   0.280E-02    0.131E-01
DAV:   4    -0.359058138399E+04    0.24189E-04   -0.98755E-05  6272   0.107E-02    0.444E-02
DAV:   5    -0.359058140915E+04   -0.25155E-04   -0.40111E-05  5760   0.779E-03    0.264E-02
DAV:   6    -0.359058141013E+04   -0.98330E-06   -0.93550E-06  5632   0.326E-03
 augmentation electrons   1804.89623173299     
 soft         electrons  0.000000000000000E+000
 total        electrons   1804.89623173299     
 augmentation electrons -3.420345697740560E-002
 soft         electrons  0.000000000000000E+000
 total        electrons -3.420345697740560E-002
 augmentation electrons   1933.14614379529     
 soft         electrons  0.000000000000000E+000
 total        electrons   1933.14614379529     
 augmentation electrons   1876.52311185329     
 soft         electrons  0.000000000000000E+000
 total        electrons   1876.52311185329     
 augmentation electrons   56.2320761987701     
 soft         electrons   1748.66412956070     
 total        electrons   1804.89620575947     
 augmentation electrons   17.2800592418924     
 soft         electrons   1748.66412956070     
 total        electrons   27.1378551315933     
 translations:           0           1           0
 142 F= -.36281907E+04 E0= -.36281802E+04  d E =-.633102E-03  mag=    27.1721
 curvature:  -1.43 expect dE=-0.346E-02 dE for cont linesearch -0.167E-04
 trial: gam= 0.54175 g(F)=  0.242E-02 g(S)=  0.000E+00 ort = 0.426E-03 (trialstep = 0.326E+00)
 search vector abs. value=  0.744E-02
 bond charge predicted
       N       E                     dE             d eps       ncg     rms          rms(c)
DAV:   1    -0.359058408094E+04   -0.26718E-02   -0.51062E-02  6400   0.272E-01    0.834E-01
DAV:   2    -0.359058450416E+04   -0.42322E-03   -0.57228E-02  6400   0.308E-01    0.316E+00
DAV:   3    -0.359057741241E+04    0.70918E-02   -0.37322E-02  5632   0.228E-01    0.949E-01
DAV:   4    -0.359058087009E+04   -0.34577E-02   -0.49465E-03  5120   0.830E-02    0.639E-01
DAV:   5    -0.359057968591E+04    0.11842E-02   -0.12356E-03  5888   0.625E-02    0.246E-01
DAV:   6    -0.359058173078E+04   -0.20449E-02   -0.11848E-03  5760   0.408E-02    0.693E-01
DAV:   7    -0.359058138980E+04    0.34098E-03   -0.10421E-03  6016   0.552E-02    0.344E-01
DAV:   8    -0.359058168723E+04   -0.29743E-03   -0.43971E-04  5888   0.215E-02    0.315E-01
DAV:   9    -0.359058169670E+04   -0.94661E-05   -0.88163E-05  6784   0.144E-02    0.201E-01
DAV:  10    -0.359058181023E+04   -0.11353E-03   -0.11561E-04  6016   0.180E-02    0.353E-02
DAV:  11    -0.359058190655E+04   -0.96325E-04   -0.87464E-05  5888   0.896E-03    0.323E-02
DAV:  12    -0.359058191631E+04   -0.97572E-05   -0.15970E-05  6656   0.322E-03    0.529E-02
DAV:  13    -0.359058191424E+04    0.20645E-05   -0.19835E-05  5888   0.459E-03    0.173E-02
DAV:  14    -0.359058191873E+04   -0.44848E-05   -0.11324E-05  5632   0.184E-03    0.121E-02
DAV:  15    -0.359058191966E+04   -0.93087E-06   -0.91355E-07  4736   0.105E-03
 augmentation electrons   1804.89726627868     
 soft         electrons  0.000000000000000E+000
 total        electrons   1804.89726627868     
 augmentation electrons -3.421929540583882E-002
 soft         electrons  0.000000000000000E+000
 total        electrons -3.421929540583882E-002
 augmentation electrons   1932.24151911415     
 soft         electrons  0.000000000000000E+000
 total        electrons   1932.24151911415     
 augmentation electrons   1875.61848717215     
 soft         electrons  0.000000000000000E+000
 total        electrons   1875.61848717215     
 augmentation electrons   56.2322016580894     
 soft         electrons   1748.66503873416     
 total        electrons   1804.89724039224     
 augmentation electrons   17.2782026287375     
 soft         electrons   1748.66503873416     
 total        electrons   27.1320454108501     
 translations:           0           1           0
 143 F= -.36281915E+04 E0= -.36281812E+04  d E =-.822907E-03  mag=    27.1663
 trial-energy change:   -0.000823  1 .order   -0.000527   -0.000862   -0.000192
 step:   0.3499(harm=  0.4189)  dis= 0.00055  next Energy= -3628.191508 (dE=-0.830E-03)
 reached required accuracy - stopping structural energy minimisation
 writing wavefunctions
