 ----------------------------------------------------
    OOO  PPPP  EEEEE N   N M   M PPPP
   O   O P   P E     NN  N MM MM P   P
   O   O PPPP  EEEEE N N N M M M PPPP   -- VERSION
   O   O P     E     N  NN M   M P
    OOO  P     EEEEE N   N M   M P
 ----------------------------------------------------
 running  512 mpi-ranks, with    1 threads/rank
 distrk:  each k-point on  512 cores,    1 groups
 distr:  one band on    4 cores,  128 groups
 vasp.6.3.2 27Jun22 (build Nov 12 2024 19:13:04) complex                        
  
 POSCAR found type information on POSCAR MnBrN C H 
 POSCAR found :  5 types and     635 ions
 scaLAPACK will be used
 LDA part: xc-table for Pade appr. of Perdew
 POSCAR, INCAR and KPOINTS ok, starting setup
 FFT: planning ... GRIDC
 FFT: planning ... GRID_SOFT
 FFT: planning ... GRID
 WAVECAR not read
 entering main loop
       N       E                     dE             d eps       ncg     rms          rms(c)
DAV:   1     0.983352832253E+04    0.98335E+04   -0.80293E+05  5376   0.119E+03
DAV:   2    -0.262340107850E+04   -0.12457E+05   -0.12036E+05  6400   0.259E+02
DAV:   3    -0.383884883260E+04   -0.12154E+04   -0.12054E+04  6400   0.864E+01
DAV:   4    -0.387078479609E+04   -0.31936E+02   -0.31729E+02  6656   0.159E+01
DAV:   5    -0.387178236951E+04   -0.99757E+00   -0.99643E+00  6656   0.267E+00    0.133E+02
DAV:   6    -0.394539219367E+04   -0.73610E+02   -0.30222E+03  6400   0.368E+01    0.276E+02
DAV:   7    -0.360835679639E+04    0.33704E+03   -0.56072E+02  6272   0.327E+01    0.973E+01
DAV:   8    -0.367866610830E+04   -0.70309E+02   -0.10401E+03  6528   0.256E+01    0.113E+02
DAV:   9    -0.362069884348E+04    0.57967E+02   -0.35414E+02  5888   0.182E+01    0.976E+01
DAV:  10    -0.361204438303E+04    0.86545E+01   -0.46592E+02  6528   0.170E+01    0.913E+01
DAV:  11    -0.358153234722E+04    0.30512E+02   -0.50317E+02  6272   0.117E+01    0.811E+01
DAV:  12    -0.356775547428E+04    0.13777E+02   -0.18305E+02  6016   0.693E+00    0.637E+01
DAV:  13    -0.357781213248E+04   -0.10057E+02   -0.19032E+02  6784   0.480E+00    0.622E+01
DAV:  14    -0.357584264503E+04    0.19695E+01   -0.75125E+01  6272   0.432E+00    0.438E+01
DAV:  15    -0.357624121977E+04   -0.39857E+00   -0.35215E+01  6144   0.381E+00    0.338E+01
DAV:  16    -0.358385078607E+04   -0.76096E+01   -0.57238E+00  6272   0.235E+00    0.263E+01
DAV:  17    -0.358671638034E+04   -0.28656E+01   -0.15209E+01  6784   0.408E+00    0.190E+01
DAV:  18    -0.358966419893E+04   -0.29478E+01   -0.44750E+00  6528   0.212E+00    0.156E+01
DAV:  19    -0.359027945288E+04   -0.61525E+00   -0.13992E+00  6272   0.188E+00    0.139E+01
DAV:  20    -0.359060296037E+04   -0.32351E+00   -0.12389E+00  6400   0.185E+00    0.117E+01
DAV:  21    -0.359036295181E+04    0.24001E+00   -0.64581E-01  6400   0.114E+00    0.988E+00
DAV:  22    -0.359023424766E+04    0.12870E+00   -0.18947E-01  6272   0.543E-01    0.862E+00
DAV:  23    -0.358999162715E+04    0.24262E+00   -0.50105E-01  6400   0.974E-01    0.639E+00
DAV:  24    -0.358982752809E+04    0.16410E+00   -0.85792E-01  6400   0.899E-01    0.482E+00
DAV:  25    -0.358979177332E+04    0.35755E-01   -0.26914E-01  6016   0.398E-01    0.469E+00
DAV:  26    -0.358978766993E+04    0.41034E-02   -0.73278E-02  6016   0.303E-01    0.467E+00
DAV:  27    -0.358969698331E+04    0.90687E-01   -0.21319E-01  5760   0.554E-01    0.408E+00
DAV:  28    -0.358975074540E+04   -0.53762E-01   -0.13730E-01  6144   0.560E-01    0.347E+00
DAV:  29    -0.358975950993E+04   -0.87645E-02   -0.11085E-01  6016   0.473E-01    0.266E+00
DAV:  30    -0.358975115372E+04    0.83562E-02   -0.11237E-01  6016   0.481E-01    0.201E+00
DAV:  31    -0.358977981904E+04   -0.28665E-01   -0.50812E-02  5760   0.186E-01    0.188E+00
DAV:  32    -0.358979734051E+04   -0.17521E-01   -0.18886E-02  5760   0.159E-01    0.176E+00
DAV:  33    -0.358979056464E+04    0.67759E-02   -0.67369E-02  5760   0.434E-01    0.131E+00
DAV:  34    -0.358982847339E+04   -0.37909E-01   -0.22606E-01  6144   0.582E-01    0.889E+00
DAV:  35    -0.358977754883E+04    0.50925E-01   -0.55681E-02  5760   0.213E-01    0.898E+00
DAV:  36    -0.358976621979E+04    0.11329E-01   -0.25320E-03  6528   0.386E-02    0.908E+00
DAV:  37    -0.358977212955E+04   -0.59098E-02   -0.21616E-04  6144   0.126E-02    0.924E+00
DAV:  38    -0.358978681819E+04   -0.14689E-01   -0.19433E-04  6144   0.156E-02    0.947E+00
DAV:  39    -0.358981226087E+04   -0.25443E-01   -0.77269E-04  5632   0.250E-02    0.968E+00
DAV:  40    -0.358967400637E+04    0.13825E+00   -0.38358E-01  5760   0.366E-01    0.100E+01
DAV:  41    -0.358954691893E+04    0.12709E+00   -0.49507E-02  6016   0.140E-01    0.100E+01
DAV:  42    -0.358954679157E+04    0.12736E-03   -0.28922E-03  6528   0.453E-02    0.100E+01
DAV:  43    -0.358947082781E+04    0.75964E-01   -0.13679E-02  5888   0.920E-02    0.100E+01
DAV:  44    -0.358904179414E+04    0.42903E+00   -0.25971E-01  5888   0.471E-01    0.984E+00
DAV:  45    -0.358878372350E+04    0.25807E+00   -0.11095E-01  6144   0.391E-01    0.968E+00
DAV:  46    -0.358880281943E+04   -0.19096E-01   -0.15770E-02  6400   0.111E-01    0.960E+00
DAV:  47    -0.358874121187E+04    0.61608E-01   -0.79884E-03  6144   0.871E-02    0.947E+00
DAV:  48    -0.358870221186E+04    0.39000E-01   -0.80972E-03  6400   0.186E-01    0.921E+00
DAV:  49    -0.358865347329E+04    0.48739E-01   -0.12232E-02  6272   0.212E-01    0.896E+00
DAV:  50    -0.358861030327E+04    0.43170E-01   -0.94008E-03  6528   0.141E-01    0.882E+00
DAV:  51    -0.358851725469E+04    0.93049E-01   -0.11908E-02  6400   0.304E-01    0.840E+00
DAV:  52    -0.358865585922E+04   -0.13860E+00   -0.10071E-01  6272   0.667E-01    0.438E+00
DAV:  53    -0.358849504140E+04    0.16082E+00   -0.19972E-01  5760   0.274E-01    0.434E+00
DAV:  54    -0.358844777024E+04    0.47271E-01   -0.89562E-03  5888   0.738E-02    0.433E+00
DAV:  55    -0.358845156246E+04   -0.37922E-02   -0.44751E-04  6400   0.197E-02    0.433E+00
DAV:  56    -0.358963979415E+04   -0.11882E+01   -0.87729E-01  6016   0.533E-01    0.345E+00
DAV:  57    -0.358957973185E+04    0.60062E-01   -0.27681E-02  5888   0.119E-01    0.346E+00
DAV:  58    -0.358959554437E+04   -0.15813E-01   -0.51465E-03  6272   0.594E-02    0.347E+00
DAV:  59    -0.358977639170E+04   -0.18085E+00   -0.95992E-02  6016   0.161E-01    0.347E+00
DAV:  60    -0.358982985986E+04   -0.53468E-01   -0.22492E-02  6272   0.136E-01    0.343E+00
DAV:  61    -0.358986540803E+04   -0.35548E-01   -0.21667E-02  6400   0.164E-01    0.342E+00
DAV:  62    -0.358989983705E+04   -0.34429E-01   -0.25564E-02  6400   0.195E-01    0.355E+00
DAV:  63    -0.358992043199E+04   -0.20595E-01   -0.16330E-02  6400   0.123E-01    0.365E+00
DAV:  64    -0.358992059858E+04   -0.16659E-03   -0.52175E-03  6144   0.493E-02    0.363E+00
DAV:  65    -0.358993848964E+04   -0.17891E-01   -0.14172E-02  6528   0.101E-01    0.373E+00
DAV:  66    -0.358997461783E+04   -0.36128E-01   -0.21917E-02  6400   0.203E-01    0.392E+00
DAV:  67    -0.359000472272E+04   -0.30105E-01   -0.15014E-02  6528   0.168E-01    0.408E+00
DAV:  68    -0.359003937370E+04   -0.34651E-01   -0.14397E-02  6528   0.180E-01    0.426E+00
DAV:  69    -0.359005340778E+04   -0.14034E-01   -0.74369E-03  6528   0.742E-02    0.434E+00
DAV:  70    -0.359005462684E+04   -0.12191E-02   -0.16988E-03  6144   0.282E-02    0.432E+00
DAV:  71    -0.359004805357E+04    0.65733E-02   -0.56173E-04  6400   0.266E-02    0.428E+00
DAV:  72    -0.359004846177E+04   -0.40820E-03   -0.21551E-04  6144   0.118E-02    0.427E+00
DAV:  73    -0.359004933050E+04   -0.86873E-03   -0.69572E-05  6144   0.724E-03    0.428E+00
DAV:  74    -0.359004998402E+04   -0.65351E-03   -0.70555E-04  6656   0.185E-02    0.427E+00
DAV:  75    -0.359004791194E+04    0.20721E-02   -0.33530E-03  6528   0.268E-02    0.424E+00
DAV:  76    -0.358998581571E+04    0.62096E-01   -0.15091E-01  6656   0.448E-01    0.390E+00
DAV:  77    -0.358994554108E+04    0.40275E-01   -0.23903E-02  6272   0.160E-01    0.375E+00
DAV:  78    -0.358992503716E+04    0.20504E-01   -0.78056E-03  6528   0.106E-01    0.364E+00
DAV:  79    -0.358989919942E+04    0.25838E-01   -0.54209E-03  6528   0.141E-01    0.352E+00
DAV:  80    -0.358988348816E+04    0.15711E-01   -0.53516E-03  6912   0.949E-02    0.345E+00
DAV:  81    -0.358976248222E+04    0.12101E+00   -0.30236E-01  6272   0.896E-01    0.223E+00
DAV:  82    -0.358978773505E+04   -0.25253E-01   -0.10560E-01  6400   0.234E-01    0.238E+00
DAV:  83    -0.358981020145E+04   -0.22466E-01   -0.32715E-02  6784   0.156E-01    0.260E+00
DAV:  84    -0.358982826210E+04   -0.18061E-01   -0.39382E-02  6784   0.156E-01    0.290E+00
DAV:  85    -0.358981541005E+04    0.12852E-01   -0.11045E-02  5760   0.111E-01    0.288E+00
DAV:  86    -0.358979655527E+04    0.18855E-01   -0.14897E-02  6528   0.132E-01    0.268E+00
DAV:  87    -0.358978470712E+04    0.11848E-01   -0.95791E-03  6912   0.949E-02    0.257E+00
DAV:  88    -0.358977449871E+04    0.10208E-01   -0.15037E-02  6784   0.104E-01    0.245E+00
DAV:  89    -0.358976319231E+04    0.11306E-01   -0.10257E-02  6912   0.926E-02    0.231E+00
DAV:  90    -0.358975712812E+04    0.60642E-02   -0.40721E-03  6784   0.621E-02    0.219E+00
DAV:  91    -0.358975723217E+04   -0.10405E-03   -0.12995E-03  6016   0.320E-02    0.216E+00
DAV:  92    -0.358975571935E+04    0.15128E-02   -0.26976E-04  6528   0.168E-02    0.211E+00
DAV:  93    -0.358975193755E+04    0.37818E-02   -0.11516E-03  6784   0.354E-02    0.194E+00
DAV:  94    -0.358974561544E+04    0.63221E-02   -0.50153E-02  6528   0.189E-01    0.124E+00
DAV:  95    -0.358975158959E+04   -0.59742E-02   -0.13829E-02  5760   0.985E-02    0.337E-01
DAV:  96    -0.358977258142E+04   -0.20992E-01   -0.35401E-02  6528   0.287E-01    0.208E+00
DAV:  97    -0.358976530126E+04    0.72802E-02   -0.19186E-02  6016   0.938E-02    0.204E+00
DAV:  98    -0.358975878839E+04    0.65129E-02   -0.19516E-03  6016   0.412E-02    0.201E+00
DAV:  99    -0.358976217704E+04   -0.33887E-02   -0.18195E-03  6784   0.369E-02    0.212E+00
DAV: 100    -0.358976277629E+04   -0.59924E-03   -0.85245E-04  6400   0.247E-02    0.216E+00
DAV: 101    -0.358976385886E+04   -0.10826E-02   -0.26703E-04  6400   0.129E-02    0.219E+00
DAV: 102    -0.358976380603E+04    0.52835E-04   -0.38569E-05  5632   0.487E-03    0.218E+00
DAV: 103    -0.358976308093E+04    0.72510E-03   -0.32216E-05  6400   0.927E-03    0.217E+00
DAV: 104    -0.358975965448E+04    0.34264E-02   -0.82915E-04  6784   0.447E-02    0.207E+00
DAV: 105    -0.358975160590E+04    0.80486E-02   -0.95206E-03  6528   0.140E-01    0.144E+00
DAV: 106    -0.358975522394E+04   -0.36180E-02   -0.64328E-03  6400   0.571E-02    0.145E+00
DAV: 107    -0.358975676488E+04   -0.15409E-02   -0.10686E-03  6528   0.266E-02    0.148E+00
DAV: 108    -0.358975895014E+04   -0.21853E-02   -0.78977E-04  6400   0.218E-02    0.173E+00
DAV: 109    -0.358975987233E+04   -0.92220E-03   -0.67786E-04  6400   0.207E-02    0.192E+00
DAV: 110    -0.358975796200E+04    0.19103E-02   -0.22105E-04  5888   0.151E-02    0.181E+00
DAV: 111    -0.358975655972E+04    0.14023E-02   -0.37355E-04  6272   0.134E-02    0.166E+00
DAV: 112    -0.358975643392E+04    0.12579E-03   -0.50215E-04  6528   0.174E-02    0.155E+00
DAV: 113    -0.358975499377E+04    0.14402E-02   -0.26041E-03  6528   0.342E-02    0.119E+00
DAV: 114    -0.358975576912E+04   -0.77535E-03   -0.26195E-03  6528   0.277E-02    0.103E+00
DAV: 115    -0.358975666850E+04   -0.89938E-03   -0.11983E-03  6400   0.174E-02    0.106E+00
DAV: 116    -0.358975686965E+04   -0.20115E-03   -0.10167E-04  5632   0.917E-03    0.112E+00
DAV: 117    -0.358975675849E+04    0.11116E-03   -0.20564E-05  5888   0.390E-03    0.114E+00
DAV: 118    -0.358975690046E+04   -0.14197E-03   -0.29584E-04  6400   0.120E-02    0.124E+00
DAV: 119    -0.358975680149E+04    0.98971E-04   -0.58307E-04  6272   0.128E-02    0.124E+00
DAV: 120    -0.358975682306E+04   -0.21572E-04   -0.26161E-04  6912   0.640E-03    0.127E+00
DAV: 121    -0.358975588235E+04    0.94072E-03   -0.83724E-04  6144   0.230E-02    0.107E+00
DAV: 122    -0.358975645582E+04   -0.57347E-03   -0.36436E-03  6400   0.251E-02    0.110E+00
DAV: 123    -0.358975587767E+04    0.57815E-03   -0.18650E-03  6784   0.186E-02    0.975E-01
DAV: 124    -0.358975616292E+04   -0.28525E-03   -0.20364E-04  5888   0.113E-02    0.923E-01
DAV: 125    -0.358975650646E+04   -0.34354E-03   -0.37029E-04  7040   0.119E-02    0.972E-01
DAV: 126    -0.358975657375E+04   -0.67289E-04   -0.30282E-04  6144   0.111E-02    0.103E+00
DAV: 127    -0.358975644657E+04    0.12718E-03   -0.23695E-05  5888   0.439E-03    0.105E+00
DAV: 128    -0.358975634462E+04    0.10195E-03   -0.69690E-05  6656   0.546E-03    0.104E+00
DAV: 129    -0.358975602324E+04    0.32138E-03   -0.18093E-03  6400   0.171E-02    0.100E+00
DAV: 130    -0.358975566329E+04    0.35995E-03   -0.87399E-04  6528   0.110E-02    0.920E-01
DAV: 131    -0.358975481836E+04    0.84493E-03   -0.49693E-03  6528   0.476E-02    0.442E-01
DAV: 132    -0.358975596974E+04   -0.11514E-02   -0.33249E-03  6400   0.319E-02    0.685E-01
DAV: 133    -0.358975523330E+04    0.73644E-03   -0.25500E-03  6656   0.236E-02    0.553E-01
DAV: 134    -0.358975505197E+04    0.18133E-03   -0.58849E-03  6528   0.267E-02    0.608E-01
DAV: 135    -0.358975444909E+04    0.60288E-03   -0.62753E-03  6784   0.338E-02    0.432E-01
DAV: 136    -0.358975518524E+04   -0.73615E-03   -0.86842E-03  6400   0.359E-02    0.800E-01
DAV: 137    -0.358975456670E+04    0.61854E-03   -0.13523E-03  5760   0.289E-02    0.644E-01
DAV: 138    -0.358975531826E+04   -0.75156E-03   -0.18131E-03  6400   0.209E-02    0.802E-01
DAV: 139    -0.358975536580E+04   -0.47542E-04   -0.65691E-04  6144   0.179E-02    0.803E-01
DAV: 140    -0.358975634291E+04   -0.97711E-03   -0.27781E-03  6400   0.224E-02    0.105E+00
DAV: 141    -0.358975608579E+04    0.25712E-03   -0.43509E-04  5888   0.172E-02    0.111E+00
DAV: 142    -0.358975579796E+04    0.28783E-03   -0.20242E-04  6656   0.849E-03    0.109E+00
DAV: 143    -0.358975555879E+04    0.23917E-03   -0.11127E-03  6528   0.138E-02    0.106E+00
DAV: 144    -0.358975514350E+04    0.41529E-03   -0.51763E-04  6528   0.937E-03    0.957E-01
DAV: 145    -0.358975524056E+04   -0.97058E-04   -0.22638E-03  6528   0.191E-02    0.918E-01
DAV: 146    -0.358975254517E+04    0.26954E-02   -0.18132E-02  6400   0.922E-02    0.660E-01
DAV: 147    -0.358975423564E+04   -0.16905E-02   -0.17312E-02  6656   0.821E-02    0.601E-01
DAV: 148    -0.358975458468E+04   -0.34905E-03   -0.28248E-03  6016   0.377E-02    0.630E-01
DAV: 149    -0.358975418749E+04    0.39720E-03   -0.55618E-04  6016   0.163E-02    0.652E-01
DAV: 150    -0.358975430111E+04   -0.11363E-03   -0.11973E-04  6144   0.994E-03    0.773E-01
DAV: 151    -0.358975251522E+04    0.17859E-02   -0.59630E-03  6784   0.339E-02    0.144E-01
DAV: 152    -0.358975425849E+04   -0.17433E-02   -0.28635E-03  6528   0.357E-02    0.316E-01
DAV: 153    -0.358975409082E+04    0.16768E-03   -0.34395E-04  6272   0.962E-03    0.308E-01
DAV: 154    -0.358975398782E+04    0.10300E-03   -0.52294E-04  6272   0.806E-03    0.332E-01
DAV: 155    -0.358975377942E+04    0.20840E-03   -0.13915E-03  6272   0.141E-02    0.430E-01
DAV: 156    -0.358975331738E+04    0.46204E-03   -0.28150E-03  6400   0.229E-02    0.278E-01
DAV: 157    -0.358975376155E+04   -0.44417E-03   -0.32438E-04  5888   0.130E-02    0.380E-01
DAV: 158    -0.358975360579E+04    0.15576E-03   -0.58199E-04  6656   0.111E-02    0.400E-01
DAV: 159    -0.358975347534E+04    0.13045E-03   -0.73099E-04  6528   0.104E-02    0.407E-01
DAV: 160    -0.358975320626E+04    0.26908E-03   -0.82978E-04  6400   0.107E-02    0.330E-01
DAV: 161    -0.358975307806E+04    0.12820E-03   -0.13849E-03  6528   0.163E-02    0.774E-02
DAV: 162    -0.358975344065E+04   -0.36259E-03   -0.35230E-04  5888   0.146E-02    0.730E-02
DAV: 163    -0.358975352471E+04   -0.84053E-04   -0.15578E-05  5632   0.385E-03    0.716E-02
DAV: 164    -0.358975348140E+04    0.43309E-04   -0.46356E-05  6528   0.283E-03    0.504E-02
DAV: 165    -0.358975349394E+04   -0.12545E-04   -0.62598E-06  6272   0.182E-03    0.461E-02
DAV: 166    -0.358975314810E+04    0.34584E-03   -0.21336E-03  6272   0.200E-02    0.690E-02
DAV: 167    -0.358975320815E+04   -0.60041E-04   -0.31531E-04  6400   0.923E-03    0.870E-02
DAV: 168    -0.358975293493E+04    0.27321E-03   -0.13341E-03  6144   0.132E-02    0.578E-02
DAV: 169    -0.358975256864E+04    0.36629E-03   -0.29331E-03  6400   0.190E-02    0.697E-02
DAV: 170    -0.358975224441E+04    0.32423E-03   -0.43055E-03  6272   0.265E-02    0.139E-01
DAV: 171    -0.358975257962E+04   -0.33521E-03   -0.63695E-04  5888   0.209E-02    0.177E-01
DAV: 172    -0.358975255715E+04    0.22472E-04   -0.22112E-04  6144   0.859E-03    0.141E-01
DAV: 173    -0.358975257929E+04   -0.22145E-04   -0.61387E-05  6272   0.297E-03    0.130E-01
DAV: 174    -0.358975258221E+04   -0.29155E-05   -0.10219E-04  6272   0.511E-03    0.137E-01
DAV: 175    -0.358975253650E+04    0.45704E-04   -0.46263E-04  6400   0.858E-03    0.150E-01
DAV: 176    -0.358975251185E+04    0.24653E-04   -0.22232E-04  6272   0.712E-03    0.728E-02
DAV: 177    -0.358975242757E+04    0.84279E-04   -0.69041E-04  6400   0.117E-02    0.752E-02
DAV: 178    -0.358975215107E+04    0.27651E-03   -0.23238E-03  6400   0.196E-02    0.849E-02
DAV: 179    -0.358975223017E+04   -0.79100E-04   -0.14758E-04  5632   0.100E-02    0.832E-02
DAV: 180    -0.358975218670E+04    0.43461E-04   -0.11384E-04  6400   0.406E-03    0.844E-02
DAV: 181    -0.358975216882E+04    0.17888E-04   -0.16790E-04  6528   0.556E-03    0.968E-02
DAV: 182    -0.358975221377E+04   -0.44949E-04   -0.13144E-03  6272   0.171E-02    0.995E-02
DAV: 183    -0.358975220391E+04    0.98598E-05   -0.23588E-03  6400   0.259E-02    0.726E-02
DAV: 184    -0.358975219629E+04    0.76201E-05   -0.86403E-04  6528   0.108E-02    0.833E-02
DAV: 185    -0.358975221466E+04   -0.18379E-04   -0.53329E-05  5632   0.809E-03    0.823E-02
DAV: 186    -0.358975219135E+04    0.23318E-04   -0.50049E-04  6272   0.112E-02    0.645E-02
DAV: 187    -0.358975227058E+04   -0.79231E-04   -0.55152E-05  6016   0.635E-03    0.592E-02
DAV: 188    -0.358975226167E+04    0.89056E-05   -0.95349E-06  5888   0.175E-03    0.637E-02
DAV: 189    -0.358975217961E+04    0.82063E-04   -0.18270E-03  6144   0.186E-02    0.611E-02
DAV: 190    -0.358975233957E+04   -0.15996E-03   -0.89859E-05  5632   0.670E-03    0.587E-02
DAV: 191    -0.358975227634E+04    0.63231E-04   -0.11958E-03  6272   0.157E-02    0.654E-02
DAV: 192    -0.358975227492E+04    0.14230E-05   -0.94955E-05  6016   0.642E-03    0.720E-02
DAV: 193    -0.358975228792E+04   -0.13001E-04   -0.77402E-06  5632   0.275E-03    0.715E-02
DAV: 194    -0.358975227658E+04    0.11335E-04   -0.83347E-06  5760   0.162E-03    0.707E-02
DAV: 195    -0.358975228457E+04   -0.79905E-05   -0.94451E-07  4992   0.811E-04    0.704E-02
DAV: 196    -0.358975224785E+04    0.36718E-04   -0.73208E-04  6272   0.118E-02    0.146E-01
DAV: 197    -0.358975223829E+04    0.95673E-05   -0.58246E-05  6144   0.640E-03    0.156E-01
DAV: 198    -0.358975221699E+04    0.21295E-04   -0.50854E-05  6144   0.449E-03    0.138E-01
DAV: 199    -0.358975222929E+04   -0.12298E-04   -0.12437E-05  6144   0.284E-03    0.140E-01
DAV: 200    -0.358975222318E+04    0.61110E-05   -0.76604E-06  5632   0.147E-03    0.141E-01
DAV: 201    -0.358975224453E+04   -0.21350E-04   -0.98865E-04  6400   0.151E-02    0.988E-02
DAV: 202    -0.358975239726E+04   -0.15273E-03   -0.57273E-04  6400   0.125E-02    0.135E-01
DAV: 203    -0.358975236621E+04    0.31049E-04   -0.22286E-04  6016   0.117E-02    0.120E-01
DAV: 204    -0.358975238292E+04   -0.16708E-04   -0.10431E-05  6016   0.288E-03    0.123E-01
DAV: 205    -0.358975239233E+04   -0.94113E-05   -0.13477E-05  5760   0.173E-03    0.124E-01
DAV: 206    -0.358975118704E+04    0.12053E-02   -0.18550E-02  6016   0.652E-02    0.627E-02
DAV: 207    -0.358975230434E+04   -0.11173E-02   -0.83784E-04  5376   0.215E-02    0.529E-02
DAV: 208    -0.358975246790E+04   -0.16356E-03   -0.41567E-05  5632   0.701E-03    0.521E-02
DAV: 209    -0.358975244890E+04    0.19001E-04   -0.75178E-05  6400   0.339E-03    0.458E-02
DAV: 210    -0.358975244255E+04    0.63432E-05   -0.28040E-05  6272   0.315E-03    0.586E-02
DAV: 211    -0.358975172009E+04    0.72246E-03   -0.72042E-03  6144   0.357E-02    0.185E-01
DAV: 212    -0.358975223921E+04   -0.51911E-03   -0.28013E-04  5376   0.189E-02    0.120E-01
DAV: 213    -0.358975210229E+04    0.13691E-03   -0.45437E-04  6528   0.102E-02    0.918E-02
DAV: 214    -0.358975192645E+04    0.17584E-03   -0.13848E-03  6400   0.159E-02    0.552E-02
DAV: 215    -0.358975186312E+04    0.63330E-04   -0.15261E-03  6400   0.164E-02    0.681E-02
DAV: 216    -0.358975195786E+04   -0.94734E-04   -0.17929E-03  6400   0.172E-02    0.811E-02
DAV: 217    -0.358975194801E+04    0.98492E-05   -0.15576E-03  6400   0.146E-02    0.720E-02
DAV: 218    -0.358975183737E+04    0.11064E-03   -0.16630E-03  6272   0.180E-02    0.130E-01
DAV: 219    -0.358975190252E+04   -0.65150E-04   -0.92123E-05  5248   0.103E-02    0.129E-01
DAV: 220    -0.358975193422E+04   -0.31700E-04   -0.49990E-05  6272   0.440E-03    0.951E-02
DAV: 221    -0.358975182195E+04    0.11227E-03   -0.97871E-03  5888   0.469E-02    0.206E-01
DAV: 222    -0.358975237203E+04   -0.55009E-03   -0.15964E-03  5504   0.331E-02    0.992E-02
DAV: 223    -0.358975236625E+04    0.57882E-05   -0.25605E-04  6144   0.802E-03    0.830E-02
DAV: 224    -0.358975237206E+04   -0.58101E-05   -0.27742E-04  6528   0.812E-03    0.858E-02
DAV: 225    -0.358975230462E+04    0.67435E-04   -0.40603E-05  5888   0.455E-03    0.921E-02
DAV: 226    -0.358975178286E+04    0.52176E-03   -0.26992E-03  5760   0.285E-02    0.403E-01
DAV: 227    -0.358975175981E+04    0.23052E-04   -0.21017E-04  5120   0.155E-02    0.365E-01
DAV: 228    -0.358975162297E+04    0.13684E-03   -0.12302E-03  5888   0.188E-02    0.374E-01
DAV: 229    -0.358975153803E+04    0.84941E-04   -0.26738E-03  6016   0.230E-02    0.251E-01
DAV: 230    -0.358975197190E+04   -0.43387E-03   -0.41745E-04  5760   0.145E-02    0.242E-01
DAV: 231    -0.358975120963E+04    0.76227E-03   -0.11668E-02  6016   0.463E-02    0.186E-01
DAV: 232    -0.358975189980E+04   -0.69017E-03   -0.26021E-03  5760   0.242E-02    0.176E-01
DAV: 233    -0.358975156478E+04    0.33502E-03   -0.72307E-03  6272   0.292E-02    0.895E-02
DAV: 234    -0.358975176252E+04   -0.19774E-03   -0.70637E-03  6400   0.287E-02    0.174E-01
DAV: 235    -0.358975275851E+04   -0.99599E-03   -0.47156E-04  5120   0.216E-02    0.169E-01
DAV: 236    -0.358975272046E+04    0.38050E-04   -0.28184E-03  6016   0.230E-02    0.284E-01
DAV: 237    -0.358975305246E+04   -0.33200E-03   -0.63238E-04  6272   0.138E-02    0.419E-01
DAV: 238    -0.358975296125E+04    0.91213E-04   -0.58525E-05  5248   0.903E-03    0.418E-01
DAV: 239    -0.358975291762E+04    0.43632E-04   -0.23022E-06  6016   0.181E-03    0.419E-01
DAV: 240    -0.358975290111E+04    0.16509E-04   -0.28695E-06  5120   0.932E-04    0.416E-01
DAV: 241    -0.358975280173E+04    0.99379E-04   -0.29408E-04  6400   0.805E-03    0.366E-01
DAV: 242    -0.358975253792E+04    0.26381E-03   -0.21385E-03  6016   0.236E-02    0.310E-01
DAV: 243    -0.358975214003E+04    0.39789E-03   -0.34330E-03  5888   0.268E-02    0.290E-01
DAV: 244    -0.358975255618E+04   -0.41615E-03   -0.20796E-04  5120   0.159E-02    0.300E-01
DAV: 245    -0.358975253995E+04    0.16227E-04   -0.26371E-05  6016   0.501E-03    0.304E-01
DAV: 246    -0.358975225610E+04    0.28385E-03   -0.24201E-03  5888   0.270E-02    0.369E-01
DAV: 247    -0.358975208828E+04    0.16782E-03   -0.28169E-03  6144   0.216E-02    0.340E-01
DAV: 248    -0.358975206578E+04    0.22495E-04   -0.41227E-04  5632   0.160E-02    0.410E-01
DAV: 249    -0.358975199244E+04    0.73343E-04   -0.16536E-04  5888   0.904E-03    0.392E-01
DAV: 250    -0.358975181195E+04    0.18049E-03   -0.62851E-05  5504   0.769E-03    0.393E-01
DAV: 251    -0.358974981176E+04    0.20002E-02   -0.44225E-02  6016   0.100E-01    0.992E-01
DAV: 252    -0.358975305247E+04   -0.32407E-02   -0.17441E-03  5120   0.477E-02    0.988E-01
DAV: 253    -0.358975306844E+04   -0.15970E-04   -0.49070E-05  5760   0.855E-03    0.994E-01
DAV: 254    -0.358975298188E+04    0.86567E-04   -0.13301E-05  6656   0.248E-03    0.980E-01
DAV: 255    -0.358975293305E+04    0.48830E-04   -0.32450E-05  6400   0.332E-03    0.956E-01
DAV: 256    -0.358975266840E+04    0.26464E-03   -0.24617E-03  6144   0.226E-02    0.847E-01
DAV: 257    -0.358975299575E+04   -0.32735E-03   -0.27403E-04  5504   0.145E-02    0.867E-01
DAV: 258    -0.358975300051E+04   -0.47587E-05   -0.23368E-05  5888   0.257E-03    0.868E-01
DAV: 259    -0.358975296619E+04    0.34318E-04   -0.45270E-06  5632   0.184E-03    0.862E-01
DAV: 260    -0.358975284582E+04    0.12037E-03   -0.23234E-04  5888   0.986E-03    0.854E-01
DAV: 261    -0.358975148810E+04    0.13577E-02   -0.87036E-03  5888   0.483E-02    0.463E-01
DAV: 262    -0.358975260195E+04   -0.11139E-02   -0.13319E-03  5888   0.221E-02    0.422E-01
DAV: 263    -0.358975285306E+04   -0.25111E-03   -0.42660E-04  6400   0.987E-03    0.407E-01
DAV: 264    -0.358975285711E+04   -0.40517E-05   -0.42914E-04  6400   0.843E-03    0.337E-01
DAV: 265    -0.358975274934E+04    0.10777E-03   -0.13753E-03  5760   0.165E-02    0.310E-01
DAV: 266    -0.358975279737E+04   -0.48023E-04   -0.12498E-03  5888   0.175E-02    0.165E-01
DAV: 267    -0.358975291942E+04   -0.12205E-03   -0.10535E-03  5760   0.208E-02    0.271E-01
DAV: 268    -0.358975297602E+04   -0.56597E-04   -0.24033E-05  5376   0.539E-03    0.271E-01
DAV: 269    -0.358975296862E+04    0.73957E-05   -0.22594E-04  6016   0.715E-03    0.289E-01
DAV: 270    -0.358975254016E+04    0.42846E-03   -0.42831E-03  6016   0.307E-02    0.261E-01
DAV: 271    -0.358975238676E+04    0.15340E-03   -0.42408E-03  6144   0.324E-02    0.453E-01
DAV: 272    -0.358975221627E+04    0.17049E-03   -0.34375E-03  5888   0.259E-02    0.427E-01
DAV: 273    -0.358975205366E+04    0.16261E-03   -0.23428E-03  6400   0.192E-02    0.404E-01
DAV: 274    -0.358975206827E+04   -0.14614E-04   -0.54954E-04  6016   0.165E-02    0.357E-01
DAV: 275    -0.358975169645E+04    0.37182E-03   -0.13289E-03  6144   0.177E-02    0.344E-01
DAV: 276    -0.358975045273E+04    0.12437E-02   -0.19783E-02  5760   0.742E-02    0.104E-01
DAV: 277    -0.358975182584E+04   -0.13731E-02   -0.31145E-03  5632   0.464E-02    0.117E-01
DAV: 278    -0.358975151096E+04    0.31488E-03   -0.12139E-03  6016   0.167E-02    0.136E-01
DAV: 279    -0.358975152665E+04   -0.15696E-04   -0.79951E-05  5120   0.794E-03    0.130E-01
DAV: 280    -0.358975143870E+04    0.87950E-04   -0.51561E-05  6528   0.361E-03    0.131E-01
DAV: 281    -0.358974898727E+04    0.24514E-02   -0.49068E-02  5632   0.118E-01    0.142E-01
DAV: 282    -0.358975226888E+04   -0.32816E-02   -0.19334E-03  5120   0.445E-02    0.595E-02
DAV: 283    -0.358975238101E+04   -0.11213E-03   -0.81244E-05  6016   0.822E-03    0.568E-02
DAV: 284    -0.358975238664E+04   -0.56303E-05   -0.76603E-05  6272   0.469E-03    0.584E-02
DAV: 285    -0.358975234500E+04    0.41638E-04   -0.15750E-04  6784   0.546E-03    0.624E-02
DAV: 286    -0.358975008717E+04    0.22578E-02   -0.25397E-02  5888   0.846E-02    0.733E-02
DAV: 287    -0.358975126614E+04   -0.11790E-02   -0.53407E-03  5760   0.339E-02    0.716E-02
DAV: 288    -0.358975225237E+04   -0.98623E-03   -0.53191E-04  5248   0.221E-02    0.654E-02
DAV: 289    -0.358975236862E+04   -0.11625E-03   -0.27811E-04  5760   0.965E-03    0.624E-02
DAV: 290    -0.358975240752E+04   -0.38895E-04   -0.81698E-05  6272   0.508E-03    0.559E-02
DAV: 291    -0.358975218616E+04    0.22136E-03   -0.12785E-03  5632   0.211E-02    0.660E-02
DAV: 292    -0.358975243835E+04   -0.25219E-03   -0.15641E-04  5888   0.109E-02    0.735E-02
DAV: 293    -0.358975244412E+04   -0.57679E-05   -0.17715E-05  5760   0.231E-03    0.686E-02
DAV: 294    -0.358975244229E+04    0.18255E-05   -0.27262E-05  6144   0.207E-03    0.740E-02
DAV: 295    -0.358975243916E+04    0.31348E-05   -0.50170E-06  5248   0.118E-03    0.746E-02
DAV: 296    -0.358975088619E+04    0.15530E-02   -0.21880E-02  5888   0.706E-02    0.594E-02
DAV: 297    -0.358975275964E+04   -0.18734E-02   -0.16369E-03  5248   0.339E-02    0.367E-02
DAV: 298    -0.358975289808E+04   -0.13843E-03   -0.40320E-04  6272   0.950E-03    0.374E-02
DAV: 299    -0.358975290111E+04   -0.30356E-05   -0.43070E-04  6400   0.860E-03    0.397E-02
DAV: 300    -0.358975294953E+04   -0.48415E-04   -0.46837E-05  5120   0.708E-03    0.375E-02
DAV: 301    -0.358975294756E+04    0.19660E-05   -0.11844E-03  6016   0.168E-02    0.197E-01
DAV: 302    -0.358975297759E+04   -0.30032E-04   -0.73815E-04  6144   0.139E-02    0.133E-01
DAV: 303    -0.358975295418E+04    0.23408E-04   -0.13869E-03  5760   0.141E-02    0.117E-01
DAV: 304    -0.358975284794E+04    0.10624E-03   -0.28982E-03  6016   0.189E-02    0.100E-01
DAV: 305    -0.358975317781E+04   -0.32987E-03   -0.64304E-04  5888   0.119E-02    0.885E-02
DAV: 306    -0.358975319516E+04   -0.17349E-04   -0.95880E-04  5760   0.183E-02    0.560E-02
DAV: 307    -0.358975294301E+04    0.25215E-03   -0.18004E-03  6016   0.166E-02    0.358E-02
DAV: 308    -0.358975285986E+04    0.83155E-04   -0.15002E-03  6272   0.133E-02    0.506E-02
DAV: 309    -0.358975143206E+04    0.14278E-02   -0.11277E-02  5888   0.427E-02    0.129E-01
DAV: 310    -0.358975161778E+04   -0.18572E-03   -0.51790E-03  6144   0.250E-02    0.159E-01
DAV: 311    -0.358975075551E+04    0.86227E-03   -0.32112E-02  5888   0.960E-02    0.316E-01
DAV: 312    -0.358975272152E+04   -0.19660E-02   -0.22300E-03  5504   0.395E-02    0.307E-01
DAV: 313    -0.358975218392E+04    0.53760E-03   -0.10836E-02  5888   0.522E-02    0.212E-01
DAV: 314    -0.358975096602E+04    0.12179E-02   -0.22309E-02  5888   0.541E-02    0.185E-01
DAV: 315    -0.358975349375E+04   -0.25277E-02   -0.15718E-03  5120   0.360E-02    0.127E-01
DAV: 316    -0.358975345909E+04    0.34664E-04   -0.25799E-03  6144   0.221E-02    0.207E-01
DAV: 317    -0.358975371329E+04   -0.25420E-03   -0.14866E-04  5120   0.133E-02    0.210E-01
DAV: 318    -0.358975370377E+04    0.95184E-05   -0.11456E-05  5888   0.357E-03    0.203E-01
DAV: 319    -0.358975370013E+04    0.36351E-05   -0.91911E-05  6272   0.457E-03    0.185E-01
DAV: 320    -0.358975373247E+04   -0.32336E-04   -0.34305E-05  6144   0.327E-03    0.173E-01
DAV: 321    -0.358975288346E+04    0.84901E-03   -0.66537E-03  5888   0.400E-02    0.527E-02
DAV: 322    -0.358975361495E+04   -0.73150E-03   -0.22067E-03  5632   0.330E-02    0.226E-01
DAV: 323    -0.358975366965E+04   -0.54695E-04   -0.17587E-04  5760   0.102E-02    0.265E-01
DAV: 324    -0.358975368391E+04   -0.14257E-04   -0.19279E-04  5760   0.792E-03    0.297E-01
DAV: 325    -0.358975366067E+04    0.23239E-04   -0.30835E-05  6016   0.382E-03    0.293E-01
DAV: 326    -0.358975257296E+04    0.10877E-02   -0.83643E-03  6016   0.405E-02    0.220E-01
DAV: 327    -0.358975334351E+04   -0.77056E-03   -0.27017E-04  5120   0.181E-02    0.220E-01
DAV: 328    -0.358975337581E+04   -0.32298E-04   -0.34386E-05  5760   0.499E-03    0.211E-01
DAV: 329    -0.358975338462E+04   -0.88036E-05   -0.11847E-06  5248   0.121E-03    0.211E-01
DAV: 330    -0.358975336022E+04    0.24397E-04   -0.14960E-03  6016   0.173E-02    0.295E-01
DAV: 331    -0.358975340264E+04   -0.42420E-04   -0.29540E-04  5632   0.129E-02    0.253E-01
DAV: 332    -0.358975348570E+04   -0.83057E-04   -0.18953E-04  5632   0.943E-03    0.303E-01
DAV: 333    -0.358975348363E+04    0.20706E-05   -0.28554E-04  5760   0.941E-03    0.301E-01
DAV: 334    -0.358975359785E+04   -0.11422E-03   -0.39430E-04  6016   0.102E-02    0.387E-01
DAV: 335    -0.358975353997E+04    0.57880E-04   -0.35332E-05  5248   0.525E-03    0.399E-01
DAV: 336    -0.358975303665E+04    0.50332E-03   -0.31966E-03  5760   0.315E-02    0.312E-01
DAV: 337    -0.358975359934E+04   -0.56269E-03   -0.34556E-04  5376   0.178E-02    0.339E-01
DAV: 338    -0.358975358488E+04    0.14460E-04   -0.51643E-05  5632   0.544E-03    0.336E-01
DAV: 339    -0.358975353889E+04    0.45987E-04   -0.11638E-04  5888   0.529E-03    0.337E-01
DAV: 340    -0.358975303173E+04    0.50716E-03   -0.31397E-03  6016   0.275E-02    0.377E-01
DAV: 341    -0.358975268941E+04    0.34232E-03   -0.33648E-03  6016   0.227E-02    0.432E-01
DAV: 342    -0.358975269498E+04   -0.55753E-05   -0.16972E-03  5760   0.198E-02    0.337E-01
DAV: 343    -0.358975247018E+04    0.22481E-03   -0.30572E-03  6016   0.223E-02    0.339E-01
DAV: 344    -0.358975260998E+04   -0.13981E-03   -0.12661E-03  5888   0.140E-02    0.297E-01
DAV: 345    -0.358975237257E+04    0.23741E-03   -0.25303E-03  6144   0.226E-02    0.326E-01
DAV: 346    -0.358975259856E+04   -0.22599E-03   -0.11932E-03  5504   0.275E-02    0.217E-01
DAV: 347    -0.358975224765E+04    0.35091E-03   -0.17389E-03  6016   0.220E-02    0.312E-01
DAV: 348    -0.358975233959E+04   -0.91941E-04   -0.25006E-04  6272   0.821E-03    0.292E-01
DAV: 349    -0.358975235814E+04   -0.18549E-04   -0.85083E-05  6144   0.387E-03    0.282E-01
DAV: 350    -0.358975269139E+04   -0.33325E-03   -0.81884E-04  6016   0.167E-02    0.262E-01
DAV: 351    -0.358975281816E+04   -0.12678E-03   -0.54414E-03  6016   0.349E-02    0.360E-01
DAV: 352    -0.358975293925E+04   -0.12109E-03   -0.11652E-03  5888   0.159E-02    0.320E-01
DAV: 353    -0.358975289890E+04    0.40348E-04   -0.17683E-04  5376   0.146E-02    0.297E-01
DAV: 354    -0.358975208997E+04    0.80894E-03   -0.21382E-03  6016   0.244E-02    0.266E-01
DAV: 355    -0.358975062718E+04    0.14628E-02   -0.74556E-03  6016   0.330E-02    0.289E-01
DAV: 356    -0.358974138156E+04    0.92456E-02   -0.11463E-01  5888   0.139E-01    0.808E-01
DAV: 357    -0.358975063314E+04   -0.92516E-02   -0.47962E-03  5120   0.710E-02    0.724E-01
DAV: 358    -0.358975098260E+04   -0.34946E-03   -0.79770E-04  7040   0.116E-02    0.813E-01
DAV: 359    -0.358975116619E+04   -0.18359E-03   -0.38220E-03  6272   0.262E-02    0.103E+00
DAV: 360    -0.358975079539E+04    0.37080E-03   -0.15526E-03  5760   0.327E-02    0.816E-01
DAV: 361    -0.358974688562E+04    0.39098E-02   -0.58877E-02  6016   0.113E-01    0.171E-01
DAV: 362    -0.358975159384E+04   -0.47082E-02   -0.11680E-02  5632   0.867E-02    0.182E-01
DAV: 363    -0.358975125658E+04    0.33726E-03   -0.23129E-03  6016   0.187E-02    0.153E-01
DAV: 364    -0.358975197412E+04   -0.71754E-03   -0.13648E-04  5120   0.126E-02    0.148E-01
DAV: 365    -0.358975198480E+04   -0.10685E-04   -0.36049E-05  6272   0.274E-03    0.176E-01
DAV: 366    -0.358975196613E+04    0.18679E-04   -0.47309E-04  6144   0.127E-02    0.693E-02
DAV: 367    -0.358975202780E+04   -0.61672E-04   -0.51030E-03  5888   0.366E-02    0.224E-01
DAV: 368    -0.358975166176E+04    0.36603E-03   -0.52082E-03  6016   0.306E-02    0.169E-01
DAV: 369    -0.358974841126E+04    0.32505E-02   -0.42339E-02  5888   0.896E-02    0.103E-01
DAV: 370    -0.358975037497E+04   -0.19637E-02   -0.16398E-02  6272   0.488E-02    0.403E-01
DAV: 371    -0.358975012629E+04    0.24868E-03   -0.28820E-02  6016   0.664E-02    0.785E-01
DAV: 372    -0.358975323695E+04   -0.31107E-02   -0.17098E-03  5120   0.427E-02    0.833E-01
DAV: 373    -0.358975290310E+04    0.33385E-03   -0.21672E-04  6272   0.129E-02    0.728E-01
DAV: 374    -0.358975303530E+04   -0.13219E-03   -0.43799E-03  6272   0.296E-02    0.858E-01
DAV: 375    -0.358975276480E+04    0.27050E-03   -0.21849E-03  6656   0.194E-02    0.796E-01
DAV: 376    -0.358974908253E+04    0.36823E-02   -0.37209E-02  6016   0.940E-02    0.216E-01
DAV: 377    -0.358975269322E+04   -0.36107E-02   -0.63182E-03  5632   0.641E-02    0.233E-01
DAV: 378    -0.358975241847E+04    0.27475E-03   -0.66460E-03  6016   0.356E-02    0.446E-01
DAV: 379    -0.358975263726E+04   -0.21879E-03   -0.28811E-03  5888   0.239E-02    0.401E-01
DAV: 380    -0.358975323717E+04   -0.59990E-03   -0.52991E-04  5504   0.149E-02    0.403E-01
DAV: 381    -0.358975274022E+04    0.49695E-03   -0.28750E-03  6016   0.337E-02    0.900E-02
DAV: 382    -0.358975355973E+04   -0.81951E-03   -0.20038E-03  5632   0.324E-02    0.253E-01
DAV: 383    -0.358975339417E+04    0.16556E-03   -0.55912E-04  5888   0.179E-02    0.953E-02
DAV: 384    -0.358975314185E+04    0.25232E-03   -0.12621E-03  6016   0.191E-02    0.602E-02
DAV: 385    -0.358975330724E+04   -0.16540E-03   -0.14095E-03  6272   0.181E-02    0.141E-01
DAV: 386    -0.358975214260E+04    0.11646E-02   -0.43588E-03  6016   0.380E-02    0.236E-01
DAV: 387    -0.358975261099E+04   -0.46838E-03   -0.10500E-03  5760   0.213E-02    0.166E-01
DAV: 388    -0.358975286623E+04   -0.25525E-03   -0.12202E-04  5504   0.845E-03    0.185E-01
DAV: 389    -0.358975296418E+04   -0.97946E-04   -0.12153E-05  5376   0.429E-03    0.186E-01
DAV: 390    -0.358975303034E+04   -0.66163E-04   -0.41958E-05  6272   0.411E-03    0.168E-01
DAV: 391    -0.358975310344E+04   -0.73096E-04   -0.44858E-04  5888   0.115E-02    0.159E-01
DAV: 392    -0.358975284182E+04    0.26162E-03   -0.53512E-04  5760   0.153E-02    0.268E-01
DAV: 393    -0.358975290206E+04   -0.60243E-04   -0.25994E-05  5120   0.628E-03    0.265E-01
DAV: 394    -0.358975291322E+04   -0.11162E-04   -0.31064E-05  5888   0.379E-03    0.227E-01
DAV: 395    -0.358975275081E+04    0.16241E-03   -0.99186E-04  6016   0.175E-02    0.167E-01
DAV: 396    -0.358975263089E+04    0.11991E-03   -0.20573E-03  6144   0.214E-02    0.868E-02
DAV: 397    -0.358975305448E+04   -0.42359E-03   -0.15619E-04  5120   0.135E-02    0.914E-02
DAV: 398    -0.358975314858E+04   -0.94098E-04   -0.37432E-05  5632   0.473E-03    0.966E-02
DAV: 399    -0.358975318790E+04   -0.39323E-04   -0.43765E-05  5888   0.368E-03    0.141E-01
DAV: 400    -0.358975319103E+04   -0.31236E-05   -0.23164E-05  6016   0.253E-03    0.151E-01
DAV: 401    -0.358975310592E+04    0.85102E-04   -0.42891E-03  6400   0.356E-02    0.694E-01
DAV: 402    -0.358975265517E+04    0.45076E-03   -0.27064E-03  5632   0.383E-02    0.423E-01
DAV: 403    -0.358975302220E+04   -0.36703E-03   -0.74515E-04  6016   0.125E-02    0.207E-01
DAV: 404    -0.358975345952E+04   -0.43732E-03   -0.36831E-04  5504   0.178E-02    0.322E-01
DAV: 405    -0.358975342529E+04    0.34225E-04   -0.42352E-04  6016   0.113E-02    0.212E-01
DAV: 406    -0.358975345399E+04   -0.28693E-04   -0.32177E-03  6016   0.332E-02    0.407E-01
DAV: 407    -0.358975376056E+04   -0.30657E-03   -0.55463E-04  5248   0.260E-02    0.362E-01
DAV: 408    -0.358975365724E+04    0.10332E-03   -0.27055E-05  5504   0.464E-03    0.353E-01
DAV: 409    -0.358975365219E+04    0.50470E-05   -0.42947E-05  6272   0.295E-03    0.344E-01
DAV: 410    -0.358975345676E+04    0.19543E-03   -0.43136E-04  5888   0.115E-02    0.208E-01
DAV: 411    -0.358975131748E+04    0.21393E-02   -0.20626E-02  5888   0.670E-02    0.167E-01
DAV: 412    -0.358975308696E+04   -0.17695E-02   -0.90378E-04  5248   0.291E-02    0.195E-01
DAV: 413    -0.358975326341E+04   -0.17645E-03   -0.54366E-05  5120   0.945E-03    0.195E-01
DAV: 414    -0.358975325175E+04    0.11659E-04   -0.44807E-05  6656   0.313E-03    0.200E-01
DAV: 415    -0.358975323705E+04    0.14698E-04   -0.17256E-05  6016   0.202E-03    0.197E-01
DAV: 416    -0.358975267574E+04    0.56131E-03   -0.49103E-03  5888   0.322E-02    0.187E-01
DAV: 417    -0.358975242424E+04    0.25150E-03   -0.33450E-03  6144   0.232E-02    0.160E-01
DAV: 418    -0.358975256988E+04   -0.14564E-03   -0.89444E-04  6016   0.125E-02    0.940E-02
DAV: 419    -0.358975256579E+04    0.40900E-05   -0.74009E-04  6400   0.967E-03    0.924E-02
DAV: 420    -0.358975285578E+04   -0.28999E-03   -0.36765E-04  5504   0.149E-02    0.137E-01
DAV: 421    -0.358975280052E+04    0.55266E-04   -0.85801E-04  5888   0.134E-02    0.660E-02
DAV: 422    -0.358975290507E+04   -0.10455E-03   -0.30571E-04  5888   0.846E-03    0.112E-01
DAV: 423    -0.358975291556E+04   -0.10492E-04   -0.40380E-05  5376   0.621E-03    0.106E-01
DAV: 424    -0.358975287673E+04    0.38833E-04   -0.43717E-05  5632   0.370E-03    0.122E-01
DAV: 425    -0.358975281574E+04    0.60988E-04   -0.91317E-05  6400   0.390E-03    0.113E-01
DAV: 426    -0.358975295686E+04   -0.14113E-03   -0.74982E-04  5888   0.152E-02    0.746E-02
DAV: 427    -0.358975298890E+04   -0.32034E-04   -0.19384E-04  5760   0.956E-03    0.971E-02
DAV: 428    -0.358975300038E+04   -0.11486E-04   -0.15643E-05  5376   0.352E-03    0.101E-01
DAV: 429    -0.358975284974E+04    0.15064E-03   -0.33716E-04  5888   0.985E-03    0.105E-01
DAV: 430    -0.358975266691E+04    0.18283E-03   -0.64530E-04  6016   0.985E-03    0.109E-01
DAV: 431    -0.358975256725E+04    0.99658E-04   -0.76585E-04  6144   0.102E-02    0.579E-02
DAV: 432    -0.358975281940E+04   -0.25215E-03   -0.25464E-04  5504   0.120E-02    0.455E-02
DAV: 433    -0.358975281217E+04    0.72351E-05   -0.47195E-06  5120   0.232E-03    0.455E-02
DAV: 434    -0.358975285063E+04   -0.38459E-04   -0.52541E-05  5760   0.385E-03    0.519E-02
DAV: 435    -0.358975284459E+04    0.60335E-05   -0.50375E-06  5760   0.155E-03    0.523E-02
DAV: 436    -0.358975243572E+04    0.40888E-03   -0.24595E-03  5888   0.245E-02    0.160E-01
DAV: 437    -0.358975275637E+04   -0.32066E-03   -0.66961E-04  5632   0.190E-02    0.734E-02
DAV: 438    -0.358975281203E+04   -0.55658E-04   -0.41236E-05  5248   0.582E-03    0.758E-02
DAV: 439    -0.358975282521E+04   -0.13183E-04   -0.29673E-06  5120   0.201E-03    0.759E-02
DAV: 440    -0.358975281279E+04    0.12419E-04   -0.27637E-05  5632   0.291E-03    0.807E-02
DAV: 441    -0.358975225805E+04    0.55474E-03   -0.79379E-03  5760   0.399E-02    0.568E-02
DAV: 442    -0.358975253640E+04   -0.27835E-03   -0.24173E-03  5888   0.238E-02    0.626E-02
DAV: 443    -0.358975294680E+04   -0.41040E-03   -0.28017E-04  5376   0.177E-02    0.543E-02
DAV: 444    -0.358975295837E+04   -0.11570E-04   -0.21698E-05  6016   0.264E-03    0.521E-02
DAV: 445    -0.358975291960E+04    0.38769E-04   -0.38966E-04  5760   0.900E-03    0.503E-02
DAV: 446    -0.358975195814E+04    0.96146E-03   -0.11743E-02  5888   0.468E-02    0.211E-01
DAV: 447    -0.358975293316E+04   -0.97502E-03   -0.73788E-04  5120   0.264E-02    0.157E-01
DAV: 448    -0.358975288663E+04    0.46535E-04   -0.32201E-04  6400   0.632E-03    0.153E-01
DAV: 449    -0.358975265065E+04    0.23598E-03   -0.12346E-03  6016   0.154E-02    0.741E-02
DAV: 450    -0.358975254652E+04    0.10413E-03   -0.18148E-03  5760   0.177E-02    0.108E-01
DAV: 451    -0.358975107190E+04    0.14746E-02   -0.16899E-02  5888   0.625E-02    0.389E-01
DAV: 452    -0.358975211541E+04   -0.10435E-02   -0.28205E-03  5376   0.427E-02    0.266E-01
DAV: 453    -0.358975207154E+04    0.43870E-04   -0.11958E-03  6016   0.156E-02    0.155E-01
DAV: 454    -0.358975234783E+04   -0.27629E-03   -0.11089E-03  5632   0.208E-02    0.137E-01
DAV: 455    -0.358975252382E+04   -0.17600E-03   -0.54375E-05  5120   0.787E-03    0.130E-01
DAV: 456    -0.358975234060E+04    0.18322E-03   -0.78894E-04  5632   0.184E-02    0.101E-01
DAV: 457    -0.358975259992E+04   -0.25932E-03   -0.26453E-04  5504   0.131E-02    0.116E-01
DAV: 458    -0.358975265680E+04   -0.56877E-04   -0.20237E-04  5632   0.816E-03    0.137E-01
DAV: 459    -0.358975218484E+04    0.47196E-03   -0.47316E-03  6016   0.331E-02    0.139E-01
DAV: 460    -0.358975223708E+04   -0.52237E-04   -0.36688E-03  6144   0.239E-02    0.635E-02
DAV: 461    -0.358975272036E+04   -0.48329E-03   -0.16956E-03  5632   0.269E-02    0.845E-02
DAV: 462    -0.358975289013E+04   -0.16977E-03   -0.16002E-04  5376   0.959E-03    0.825E-02
DAV: 463    -0.358975291745E+04   -0.27312E-04   -0.58279E-05  5888   0.485E-03    0.586E-02
DAV: 464    -0.358975294084E+04   -0.23393E-04   -0.41868E-05  6016   0.396E-03    0.571E-02
DAV: 465    -0.358975285200E+04    0.88837E-04   -0.97221E-04  5760   0.175E-02    0.544E-02
DAV: 466    -0.358975249982E+04    0.35218E-03   -0.35182E-03  6016   0.311E-02    0.215E-01
DAV: 467    -0.358975275212E+04   -0.25231E-03   -0.20024E-04  5120   0.148E-02    0.210E-01
DAV: 468    -0.358975261999E+04    0.13213E-03   -0.12612E-03  5888   0.172E-02    0.132E-01
DAV: 469    -0.358975232816E+04    0.29183E-03   -0.40316E-03  6016   0.263E-02    0.723E-02
DAV: 470    -0.358975272609E+04   -0.39793E-03   -0.14409E-03  5760   0.158E-02    0.872E-02
DAV: 471    -0.358975196724E+04    0.75885E-03   -0.95409E-03  5888   0.408E-02    0.117E-01
DAV: 472    -0.358975240228E+04   -0.43505E-03   -0.64308E-03  6016   0.273E-02    0.137E-01
DAV: 473    -0.358975364854E+04   -0.12463E-02   -0.13707E-03  5504   0.251E-02    0.435E-01
DAV: 474    -0.358975371142E+04   -0.62890E-04   -0.27412E-03  6016   0.224E-02    0.582E-01
DAV: 475    -0.358975382028E+04   -0.10885E-03   -0.11449E-03  5504   0.248E-02    0.621E-01
DAV: 476    -0.358975328723E+04    0.53304E-03   -0.75539E-03  5888   0.420E-02    0.667E-01
DAV: 477    -0.358975280212E+04    0.48511E-03   -0.80728E-03  5760   0.444E-02    0.531E-01
DAV: 478    -0.358975356962E+04   -0.76750E-03   -0.47219E-04  5376   0.188E-02    0.478E-01
DAV: 479    -0.358975388222E+04   -0.31260E-03   -0.48348E-04  5632   0.155E-02    0.553E-01
DAV: 480    -0.358975371506E+04    0.16716E-03   -0.35600E-04  6016   0.966E-03    0.512E-01
DAV: 481    -0.358975041618E+04    0.32989E-02   -0.34365E-02  5888   0.750E-02    0.407E-01
DAV: 482    -0.358975270473E+04   -0.22886E-02   -0.10321E-02  5632   0.703E-02    0.890E-02
DAV: 483    -0.358975337012E+04   -0.66539E-03   -0.13829E-03  6144   0.177E-02    0.302E-01
DAV: 484    -0.358975370001E+04   -0.32988E-03   -0.23519E-04  5504   0.135E-02    0.361E-01
DAV: 485    -0.358975366084E+04    0.39168E-04   -0.63725E-05  5632   0.768E-03    0.349E-01
DAV: 486    -0.358975306817E+04    0.59267E-03   -0.31085E-03  5888   0.233E-02    0.747E-02
DAV: 487    -0.358975345180E+04   -0.38363E-03   -0.58230E-04  5504   0.203E-02    0.572E-02
DAV: 488    -0.358975343429E+04    0.17511E-04   -0.35213E-05  5760   0.522E-03    0.566E-02
DAV: 489    -0.358975342728E+04    0.70078E-05   -0.40813E-05  6272   0.324E-03    0.559E-02
DAV: 490    -0.358975338268E+04    0.44600E-04   -0.22539E-04  6400   0.618E-03    0.557E-02
DAV: 491    -0.358975325727E+04    0.12541E-03   -0.16165E-03  5760   0.212E-02    0.116E-01
DAV: 492    -0.358975349086E+04   -0.23359E-03   -0.17349E-04  5632   0.119E-02    0.925E-02
DAV: 493    -0.358975349398E+04   -0.31226E-05   -0.58739E-05  5760   0.584E-03    0.898E-02
DAV: 494    -0.358975349636E+04   -0.23741E-05   -0.12579E-06  4992   0.990E-04    0.902E-02
DAV: 495    -0.358975347668E+04    0.19676E-04   -0.17643E-04  5760   0.673E-03    0.106E-01
DAV: 496    -0.358975322903E+04    0.24765E-03   -0.22710E-03  6016   0.234E-02    0.684E-02
DAV: 497    -0.358975326277E+04   -0.33736E-04   -0.43418E-04  5760   0.129E-02    0.607E-02
DAV: 498    -0.358975317856E+04    0.84203E-04   -0.35251E-04  6144   0.653E-03    0.592E-02
DAV: 499    -0.358975286935E+04    0.30921E-03   -0.25149E-03  6016   0.187E-02    0.538E-02
DAV: 500    -0.358975282539E+04    0.43961E-04   -0.13471E-03  6656   0.123E-02
 -----------------------------------------------------------------------------
|                                                                             |
|           W    W    AA    RRRRR   N    N  II  N    N   GGGG   !!!           |
|           W    W   A  A   R    R  NN   N  II  NN   N  G    G  !!!           |
|           W    W  A    A  R    R  N N  N  II  N N  N  G       !!!           |
|           W WW W  AAAAAA  RRRRR   N  N N  II  N  N N  G  GGG   !            |
|           WW  WW  A    A  R   R   N   NN  II  N   NN  G    G                |
|           W    W  A    A  R    R  N    N  II  N    N   GGGG   !!!           |
|                                                                             |
|     The electronic self-consistency was not achieved in the given           |
|     number of steps (NELM). The forces and other quantities evaluated       |
|     might not be reliable so examine the results carefully. If you find     |
|     spurious results, we suggest increasing NELM, if you were close to      |
|     convergence or switching to a different ALGO or adjusting the           |
|     density mixing parameters otherwise.                                    |
|                                                                             |
 -----------------------------------------------------------------------------

 augmentation electrons   1804.87690248856     
 soft         electrons  0.000000000000000E+000
 total        electrons   1804.87690248856     
 augmentation electrons -6.870699764645349E-002
 soft         electrons  0.000000000000000E+000
 total        electrons -6.870699764645349E-002
 augmentation electrons   1897.59959528426     
 soft         electrons  0.000000000000000E+000
 total        electrons   1897.59959528426     
 augmentation electrons   1840.97656334226     
 soft         electrons  0.000000000000000E+000
 total        electrons   1840.97656334226     
 augmentation electrons   56.1705795106908     
 soft         electrons   1748.70623594513     
 total        electrons   1804.87681545582     
 augmentation electrons   31.3229862346202     
 soft         electrons   1748.70623594513     
 total        electrons   49.2633867431938     
 translations:           0           1           0
   1 F= -.36273805E+04 E0= -.36273717E+04  d E =-.362738E+04  mag=    49.3321
 curvature:   0.00 expect dE= 0.000E+00 dE for cont linesearch  0.000E+00
 trial: gam= 0.00000 g(F)=  0.376E+00 g(S)=  0.000E+00 ort = 0.000E+00 (trialstep = 0.100E+01)
 search vector abs. value=  0.376E+00
 bond charge predicted
       N       E                     dE             d eps       ncg     rms          rms(c)
DAV:   1    -0.358992829436E+04   -0.17543E+00   -0.26152E+01  5248   0.335E+00    0.569E+00
DAV:   2    -0.359076568976E+04   -0.83740E+00   -0.12098E+01  6400   0.198E+00    0.958E+00
DAV:   3    -0.359124292583E+04   -0.47724E+00   -0.85517E-01  5888   0.796E-01    0.711E+00
DAV:   4    -0.359098745941E+04    0.25547E+00   -0.69434E-02  5888   0.209E-01    0.789E+00
DAV:   5    -0.359181384350E+04   -0.82638E+00   -0.60668E-01  6272   0.767E-01    0.336E+00
DAV:   6    -0.359182780440E+04   -0.13961E-01   -0.10508E-01  6016   0.288E-01    0.273E+00
DAV:   7    -0.359183302499E+04   -0.52206E-02   -0.50666E-02  5888   0.287E-01    0.208E+00
DAV:   8    -0.359185459212E+04   -0.21567E-01   -0.84126E-02  6144   0.484E-01    0.755E-01
DAV:   9    -0.359186727301E+04   -0.12681E-01   -0.53869E-02  6144   0.301E-01    0.390E-01
DAV:  10    -0.359187420280E+04   -0.69298E-02   -0.21651E-02  6016   0.139E-01    0.293E-01
DAV:  11    -0.359187691749E+04   -0.27147E-02   -0.48618E-03  6016   0.686E-02    0.264E-01
DAV:  12    -0.359188015139E+04   -0.32339E-02   -0.69934E-03  5888   0.595E-02    0.205E-01
DAV:  13    -0.359187995116E+04    0.20023E-03   -0.17536E-03  6400   0.873E-02    0.186E-01
DAV:  14    -0.359188009127E+04   -0.14011E-03   -0.10020E-03  6272   0.398E-02    0.166E-01
DAV:  15    -0.359188012019E+04   -0.28923E-04   -0.50578E-04  6656   0.256E-02    0.147E-01
DAV:  16    -0.359188017572E+04   -0.55530E-04   -0.13539E-03  6272   0.362E-02    0.131E-01
DAV:  17    -0.359188027040E+04   -0.94679E-04   -0.20659E-03  6272   0.414E-02    0.129E-01
DAV:  18    -0.359188049301E+04   -0.22261E-03   -0.63240E-04  6400   0.195E-02    0.108E-01
DAV:  19    -0.359188049837E+04   -0.53587E-05   -0.24938E-03  6272   0.325E-02    0.896E-02
DAV:  20    -0.359188060410E+04   -0.10573E-03   -0.32279E-03  6528   0.313E-02    0.890E-02
DAV:  21    -0.359188099307E+04   -0.38897E-03   -0.12447E-03  6272   0.195E-02    0.785E-02
DAV:  22    -0.359188114938E+04   -0.15631E-03   -0.25037E-03  6528   0.211E-02    0.727E-02
DAV:  23    -0.359188081233E+04    0.33705E-03   -0.10816E-02  6400   0.429E-02    0.699E-02
DAV:  24    -0.359188171559E+04   -0.90326E-03   -0.39650E-03  6272   0.234E-02    0.590E-02
DAV:  25    -0.359188201638E+04   -0.30079E-03   -0.78560E-03  6656   0.312E-02    0.521E-02
DAV:  26    -0.359188260990E+04   -0.59352E-03   -0.54922E-03  6912   0.245E-02    0.482E-02
DAV:  27    -0.359188349486E+04   -0.88496E-03   -0.12049E-03  6016   0.186E-02    0.368E-02
DAV:  28    -0.359188381581E+04   -0.32095E-03   -0.15926E-03  7296   0.133E-02    0.356E-02
DAV:  29    -0.359188411018E+04   -0.29437E-03   -0.12771E-03  6400   0.120E-02    0.345E-02
DAV:  30    -0.359188434158E+04   -0.23140E-03   -0.18944E-04  6016   0.956E-03    0.314E-02
DAV:  31    -0.359188443652E+04   -0.94940E-04   -0.13072E-04  6272   0.401E-03    0.311E-02
DAV:  32    -0.359188443841E+04   -0.18864E-05   -0.88561E-06  5888   0.308E-03    0.307E-02
DAV:  33    -0.359188429325E+04    0.14516E-03   -0.19184E-04  6144   0.634E-03    0.308E-02
DAV:  34    -0.359188276208E+04    0.15312E-02   -0.72781E-03  6272   0.347E-02    0.460E-02
DAV:  35    -0.359187793817E+04    0.48239E-02   -0.38995E-02  6272   0.709E-02    0.915E-02
DAV:  36    -0.359188207519E+04   -0.41370E-02   -0.19482E-03  5632   0.432E-02    0.566E-02
DAV:  37    -0.359188228997E+04   -0.21477E-03   -0.10221E-04  5632   0.116E-02    0.540E-02
DAV:  38    -0.359188221707E+04    0.72895E-04   -0.59780E-05  5760   0.791E-03    0.524E-02
DAV:  39    -0.359188209730E+04    0.11977E-03   -0.14668E-04  6016   0.110E-02    0.580E-02
DAV:  40    -0.359188201723E+04    0.80067E-04   -0.29386E-04  5760   0.158E-02    0.769E-02
DAV:  41    -0.359188198826E+04    0.28973E-04   -0.15230E-03  6400   0.157E-02    0.965E-02
DAV:  42    -0.359188179516E+04    0.19309E-03   -0.38323E-04  6272   0.838E-03    0.103E-01
DAV:  43    -0.359188177444E+04    0.20729E-04   -0.54537E-04  6400   0.771E-03    0.101E-01
DAV:  44    -0.359188165999E+04    0.11444E-03   -0.16082E-03  6272   0.135E-02    0.101E-01
DAV:  45    -0.359188154388E+04    0.11612E-03   -0.49885E-04  6272   0.734E-03    0.980E-02
DAV:  46    -0.359188140634E+04    0.13754E-03   -0.28990E-05  5760   0.476E-03    0.967E-02
DAV:  47    -0.359188134305E+04    0.63289E-04   -0.22519E-06  5248   0.174E-03    0.968E-02
DAV:  48    -0.359188128845E+04    0.54603E-04   -0.52124E-06  6144   0.154E-03    0.991E-02
DAV:  49    -0.359188131506E+04   -0.26611E-04   -0.82457E-06  5760   0.146E-03    0.983E-02
DAV:  50    -0.359188126517E+04    0.49886E-04   -0.35312E-05  6016   0.268E-03    0.996E-02
DAV:  51    -0.359188128770E+04   -0.22533E-04   -0.62227E-06  5376   0.126E-03    0.100E-01
DAV:  52    -0.359188131142E+04   -0.23712E-04   -0.92544E-06  5376   0.149E-03    0.997E-02
DAV:  53    -0.359188125027E+04    0.61143E-04   -0.63714E-05  6016   0.311E-03    0.100E-01
DAV:  54    -0.359188120216E+04    0.48116E-04   -0.16427E-04  6016   0.432E-03    0.102E-01
DAV:  55    -0.359187979976E+04    0.14024E-02   -0.99139E-03  6144   0.381E-02    0.111E-01
DAV:  56    -0.359188113482E+04   -0.13351E-02   -0.66489E-04  6528   0.158E-02    0.108E-01
DAV:  57    -0.359188156881E+04   -0.43399E-03   -0.14419E-04  6016   0.980E-03    0.108E-01
DAV:  58    -0.359188053477E+04    0.10340E-02   -0.53725E-03  6144   0.291E-02    0.118E-01
DAV:  59    -0.359188148412E+04   -0.94935E-03   -0.12390E-04  5632   0.129E-02    0.116E-01
DAV:  60    -0.359188142387E+04    0.60253E-04   -0.23992E-04  6144   0.482E-03    0.118E-01
DAV:  61    -0.359188073119E+04    0.69267E-03   -0.27754E-03  6144   0.197E-02    0.128E-01
DAV:  62    -0.359188092511E+04   -0.19392E-03   -0.53246E-04  6272   0.931E-03    0.132E-01
DAV:  63    -0.359188123540E+04   -0.31028E-03   -0.83528E-05  5632   0.700E-03    0.131E-01
DAV:  64    -0.359188119890E+04    0.36499E-04   -0.10336E-04  6016   0.359E-03    0.131E-01
DAV:  65    -0.359188138209E+04   -0.18319E-03   -0.24307E-04  6272   0.626E-03    0.129E-01
DAV:  66    -0.359188133670E+04    0.45393E-04   -0.18747E-04  6144   0.487E-03    0.127E-01
DAV:  67    -0.359188140605E+04   -0.69351E-04   -0.29680E-04  6144   0.567E-03    0.126E-01
DAV:  68    -0.359188140360E+04    0.24481E-05   -0.33472E-04  5888   0.533E-03    0.124E-01
DAV:  69    -0.359188142931E+04   -0.25710E-04   -0.38310E-04  5888   0.589E-03    0.122E-01
DAV:  70    -0.359188135825E+04    0.71060E-04   -0.24615E-04  5760   0.457E-03    0.121E-01
DAV:  71    -0.359188128335E+04    0.74902E-04   -0.92742E-05  5888   0.323E-03    0.120E-01
DAV:  72    -0.359188131983E+04   -0.36480E-04   -0.69127E-04  6016   0.887E-03    0.118E-01
DAV:  73    -0.359188117300E+04    0.14684E-03   -0.45780E-05  6528   0.414E-03    0.116E-01
DAV:  74    -0.359188119357E+04   -0.20572E-04   -0.11262E-04  6272   0.366E-03    0.115E-01
DAV:  75    -0.359188127383E+04   -0.80262E-04   -0.16921E-03  6272   0.152E-02    0.112E-01
DAV:  76    -0.359188115310E+04    0.12073E-03   -0.18312E-03  6016   0.131E-02    0.108E-01
DAV:  77    -0.359184009292E+04    0.41060E-01   -0.46027E-01  5632   0.274E-01    0.278E-01
DAV:  78    -0.359187470170E+04   -0.34609E-01   -0.14949E-02  5120   0.116E-01    0.153E-01
DAV:  79    -0.359187647640E+04   -0.17747E-02   -0.72308E-04  5120   0.286E-02    0.146E-01
DAV:  80    -0.359187656566E+04   -0.89259E-04   -0.31071E-05  6016   0.561E-03    0.145E-01
DAV:  81    -0.359187665852E+04   -0.92864E-04   -0.96559E-04  5888   0.130E-02    0.141E-01
DAV:  82    -0.359187597061E+04    0.68791E-03   -0.90614E-03  5888   0.358E-02    0.143E-01
DAV:  83    -0.359187678156E+04   -0.81095E-03   -0.41761E-04  5504   0.201E-02    0.139E-01
DAV:  84    -0.359187678856E+04   -0.70075E-05   -0.18510E-05  5632   0.535E-03    0.138E-01
DAV:  85    -0.359187681211E+04   -0.23545E-04   -0.22988E-05  5632   0.158E-03    0.138E-01
DAV:  86    -0.359187692743E+04   -0.11533E-03   -0.10618E-04  6272   0.491E-03    0.133E-01
DAV:  87    -0.359187623068E+04    0.69675E-03   -0.63871E-03  6016   0.344E-02    0.129E-01
DAV:  88    -0.359187722349E+04   -0.99281E-03   -0.62800E-04  5632   0.189E-02    0.119E-01
DAV:  89    -0.359187735723E+04   -0.13374E-03   -0.23611E-05  5888   0.506E-03    0.118E-01
DAV:  90    -0.359187737157E+04   -0.14340E-04   -0.23551E-06  5376   0.155E-03    0.118E-01
DAV:  91    -0.359187760231E+04   -0.23075E-03   -0.14411E-03  6272   0.164E-02    0.111E-01
DAV:  92    -0.359187765606E+04   -0.53750E-04   -0.40619E-03  6144   0.228E-02    0.108E-01
DAV:  93    -0.359187781190E+04   -0.15584E-03   -0.20853E-03  6272   0.142E-02    0.108E-01
DAV:  94    -0.359187783921E+04   -0.27309E-04   -0.13021E-03  6528   0.109E-02    0.111E-01
DAV:  95    -0.359187772371E+04    0.11550E-03   -0.20046E-04  5632   0.121E-02    0.116E-01
DAV:  96    -0.359187777298E+04   -0.49269E-04   -0.14973E-04  6272   0.554E-03    0.115E-01
DAV:  97    -0.359187780644E+04   -0.33462E-04   -0.18315E-04  6272   0.440E-03    0.114E-01
DAV:  98    -0.359187784093E+04   -0.34493E-04   -0.16531E-04  6016   0.433E-03    0.113E-01
DAV:  99    -0.359187791340E+04   -0.72462E-04   -0.15210E-04  5632   0.400E-03    0.112E-01
DAV: 100    -0.359187785875E+04    0.54651E-04   -0.38945E-03  6016   0.240E-02    0.106E-01
DAV: 101    -0.359187800992E+04   -0.15117E-03   -0.44982E-03  6016   0.207E-02    0.998E-02
DAV: 102    -0.359187675733E+04    0.12526E-02   -0.19624E-02  5760   0.613E-02    0.116E-01
DAV: 103    -0.359187837660E+04   -0.16193E-02   -0.86648E-04  5120   0.290E-02    0.105E-01
DAV: 104    -0.359187846757E+04   -0.90968E-04   -0.52677E-05  5376   0.796E-03    0.105E-01
DAV: 105    -0.359187846220E+04    0.53607E-05   -0.30172E-06  5376   0.150E-03    0.105E-01
DAV: 106    -0.359187846579E+04   -0.35881E-05   -0.17285E-06  5248   0.481E-04    0.105E-01
DAV: 107    -0.359187844089E+04    0.24906E-04   -0.17902E-03  6016   0.185E-02    0.105E-01
DAV: 108    -0.359187861243E+04   -0.17154E-03   -0.96833E-05  5504   0.107E-02    0.104E-01
DAV: 109    -0.359187862883E+04   -0.16405E-04   -0.80904E-06  4864   0.106E-03    0.104E-01
DAV: 110    -0.359187870712E+04   -0.78285E-04   -0.10730E-03  5888   0.141E-02    0.102E-01
DAV: 111    -0.359187690046E+04    0.18067E-02   -0.23621E-02  5632   0.623E-02    0.119E-01
DAV: 112    -0.359187892692E+04   -0.20265E-02   -0.27046E-03  5760   0.294E-02    0.112E-01
DAV: 113    -0.359187946337E+04   -0.53646E-03   -0.23524E-04  5120   0.150E-02    0.111E-01
DAV: 114    -0.359187940852E+04    0.54857E-04   -0.46736E-04  5632   0.126E-02    0.109E-01
DAV: 115    -0.359187947124E+04   -0.62719E-04   -0.12733E-05  5376   0.394E-03    0.108E-01
DAV: 116    -0.359187948866E+04   -0.17426E-04   -0.10424E-05  5888   0.135E-03    0.107E-01
DAV: 117    -0.359187394592E+04    0.55427E-02   -0.77792E-02  5632   0.113E-01    0.171E-01
DAV: 118    -0.359187707252E+04   -0.31266E-02   -0.12002E-02  5888   0.479E-02    0.192E-01
DAV: 119    -0.359187940691E+04   -0.23344E-02   -0.10268E-03  5120   0.322E-02    0.185E-01
DAV: 120    -0.359187949273E+04   -0.85826E-04   -0.43308E-05  6144   0.584E-03    0.186E-01
DAV: 121    -0.359187956166E+04   -0.68927E-04   -0.72797E-06  5632   0.259E-03    0.185E-01
DAV: 122    -0.359185716587E+04    0.22396E-01   -0.25919E-01  5760   0.212E-01    0.183E-01
DAV: 123    -0.359187833512E+04   -0.21169E-01   -0.82886E-03  5248   0.832E-02    0.576E-02
DAV: 124    -0.359188027096E+04   -0.19358E-02   -0.25705E-03  5504   0.382E-02    0.419E-02
DAV: 125    -0.359188034316E+04   -0.72203E-04   -0.18680E-03  6016   0.167E-02    0.444E-02
DAV: 126    -0.359188034733E+04   -0.41697E-05   -0.14574E-04  5248   0.117E-02    0.414E-02
DAV: 127    -0.359188037671E+04   -0.29377E-04   -0.44259E-04  6016   0.912E-03    0.417E-02
DAV: 128    -0.359188032243E+04    0.54277E-04   -0.35442E-05  5632   0.590E-03    0.407E-02
DAV: 129    -0.359188027092E+04    0.51512E-04   -0.42907E-05  6272   0.284E-03    0.408E-02
DAV: 130    -0.359188041905E+04   -0.14813E-03   -0.70596E-04  5632   0.118E-02    0.416E-02
DAV: 131    -0.359188016942E+04    0.24962E-03   -0.94694E-04  5760   0.162E-02    0.411E-02
DAV: 132    -0.359188013172E+04    0.37704E-04   -0.72387E-04  5632   0.120E-02    0.396E-02
DAV: 133    -0.359187828679E+04    0.18449E-02   -0.12502E-02  5632   0.454E-02    0.541E-02
DAV: 134    -0.359187936807E+04   -0.10813E-02   -0.10767E-03  6016   0.195E-02    0.413E-02
DAV: 135    -0.359187971594E+04   -0.34787E-03   -0.82114E-05  5120   0.980E-03    0.378E-02
DAV: 136    -0.359187982710E+04   -0.11116E-03   -0.16224E-04  5504   0.738E-03    0.378E-02
DAV: 137    -0.359187925710E+04    0.57000E-03   -0.27655E-03  5760   0.241E-02    0.404E-02
DAV: 138    -0.359187835977E+04    0.89733E-03   -0.64557E-03  5760   0.277E-02    0.487E-02
DAV: 139    -0.359187799790E+04    0.36187E-03   -0.63671E-03  6016   0.241E-02    0.504E-02
DAV: 140    -0.359187860328E+04   -0.60538E-03   -0.25703E-03  5760   0.200E-02    0.445E-02
DAV: 141    -0.359187901357E+04   -0.41029E-03   -0.10527E-03  5760   0.156E-02    0.416E-02
DAV: 142    -0.359187908825E+04   -0.74681E-04   -0.32068E-03  5760   0.294E-02    0.533E-02
DAV: 143    -0.359187926162E+04   -0.17336E-03   -0.38143E-04  5504   0.146E-02    0.530E-02
DAV: 144    -0.359187927003E+04   -0.84120E-05   -0.31011E-04  5632   0.101E-02    0.502E-02
DAV: 145    -0.359187876642E+04    0.50360E-03   -0.34688E-03  5632   0.239E-02    0.493E-02
DAV: 146    -0.359187742662E+04    0.13398E-02   -0.11960E-02  5888   0.383E-02    0.546E-02
DAV: 147    -0.359187725991E+04    0.16671E-03   -0.13261E-02  5760   0.505E-02    0.587E-02
DAV: 148    -0.359187856089E+04   -0.13010E-02   -0.81060E-04  5376   0.247E-02    0.408E-02
DAV: 149    -0.359187728047E+04    0.12804E-02   -0.86060E-03  5632   0.379E-02    0.643E-02
DAV: 150    -0.359187827114E+04   -0.99067E-03   -0.91910E-03  5760   0.509E-02    0.497E-02
DAV: 151    -0.359187810852E+04    0.16262E-03   -0.72635E-03  5760   0.275E-02    0.538E-02
DAV: 152    -0.359187825105E+04   -0.14254E-03   -0.29982E-03  5632   0.329E-02    0.616E-02
DAV: 153    -0.359187845894E+04   -0.20788E-03   -0.40295E-03  5632   0.276E-02    0.597E-02
DAV: 154    -0.359187856271E+04   -0.10378E-03   -0.79162E-04  5504   0.213E-02    0.560E-02
DAV: 155    -0.359187862551E+04   -0.62802E-04   -0.27196E-05  5888   0.384E-03    0.557E-02
DAV: 156    -0.359187854484E+04    0.80675E-04   -0.11763E-04  6016   0.487E-03    0.567E-02
DAV: 157    -0.359187641759E+04    0.21273E-02   -0.14746E-02  5760   0.596E-02    0.131E-01
DAV: 158    -0.359187749063E+04   -0.10730E-02   -0.76504E-04  5632   0.210E-02    0.126E-01
DAV: 159    -0.359187763303E+04   -0.14240E-03   -0.10553E-03  5632   0.105E-02    0.125E-01
DAV: 160    -0.359187774674E+04   -0.11371E-03   -0.27105E-03  5888   0.166E-02    0.123E-01
DAV: 161    -0.359187784182E+04   -0.95075E-04   -0.15660E-03  5760   0.251E-02    0.120E-01
DAV: 162    -0.359186593821E+04    0.11904E-01   -0.10551E-01  5632   0.130E-01    0.206E-01
DAV: 163    -0.359187521781E+04   -0.92796E-02   -0.41196E-03  5120   0.647E-02    0.173E-01
DAV: 164    -0.359187577707E+04   -0.55926E-03   -0.14548E-03  5632   0.219E-02    0.165E-01
DAV: 165    -0.359187572766E+04    0.49408E-04   -0.16392E-04  5376   0.965E-03    0.167E-01
DAV: 166    -0.359187587600E+04   -0.14834E-03   -0.14810E-04  5632   0.599E-03    0.163E-01
DAV: 167    -0.359187540326E+04    0.47274E-03   -0.19756E-02  5632   0.573E-02    0.140E-01
DAV: 168    -0.359187682939E+04   -0.14261E-02   -0.55716E-03  5632   0.501E-02    0.128E-01
DAV: 169    -0.359187648451E+04    0.34489E-03   -0.31174E-03  5760   0.200E-02    0.129E-01
DAV: 170    -0.359187661207E+04   -0.12756E-03   -0.82840E-04  5760   0.140E-02    0.134E-01
DAV: 171    -0.359187689970E+04   -0.28764E-03   -0.32825E-04  5376   0.143E-02    0.130E-01
DAV: 172    -0.359186943847E+04    0.74612E-02   -0.11669E-01  5888   0.139E-01    0.132E-01
DAV: 173    -0.359187872772E+04   -0.92893E-02   -0.40181E-03  5376   0.613E-02    0.546E-02
DAV: 174    -0.359187929322E+04   -0.56550E-03   -0.11408E-03  5504   0.213E-02    0.505E-02
DAV: 175    -0.359187909049E+04    0.20273E-03   -0.39791E-03  5632   0.271E-02    0.600E-02
DAV: 176    -0.359187877552E+04    0.31498E-03   -0.80762E-03  5632   0.316E-02    0.680E-02
DAV: 177    -0.359187729987E+04    0.14756E-02   -0.25455E-02  5760   0.788E-02    0.655E-02
DAV: 178    -0.359187988770E+04   -0.25878E-02   -0.19998E-03  5248   0.405E-02    0.332E-02
DAV: 179    -0.359187986738E+04    0.20317E-04   -0.13495E-04  5760   0.716E-03    0.321E-02
DAV: 180    -0.359187986425E+04    0.31289E-05   -0.14197E-03  5760   0.183E-02    0.355E-02
DAV: 181    -0.359187994618E+04   -0.81933E-04   -0.99241E-04  5632   0.110E-02    0.357E-02
DAV: 182    -0.359188002696E+04   -0.80776E-04   -0.48953E-04  5504   0.150E-02    0.319E-02
DAV: 183    -0.359187992192E+04    0.10504E-03   -0.32541E-04  5760   0.643E-03    0.331E-02
DAV: 184    -0.359187945280E+04    0.46912E-03   -0.26472E-03  5632   0.195E-02    0.391E-02
DAV: 185    -0.359187916936E+04    0.28344E-03   -0.26182E-03  5888   0.153E-02    0.424E-02
DAV: 186    -0.359187943834E+04   -0.26898E-03   -0.23538E-04  5248   0.135E-02    0.385E-02
DAV: 187    -0.359187935755E+04    0.80786E-04   -0.19905E-03  5632   0.222E-02    0.424E-02
DAV: 188    -0.359187957941E+04   -0.22186E-03   -0.69801E-05  5376   0.803E-03    0.413E-02
DAV: 189    -0.359187961869E+04   -0.39279E-04   -0.50747E-06  5376   0.259E-03    0.402E-02
DAV: 190    -0.359187963641E+04   -0.17720E-04   -0.49224E-06  5760   0.125E-03    0.393E-02
DAV: 191    -0.359187951517E+04    0.12124E-03   -0.69715E-04  5632   0.127E-02    0.369E-02
DAV: 192    -0.359187945378E+04    0.61393E-04   -0.17722E-03  5632   0.231E-02    0.431E-02
DAV: 193    -0.359187929441E+04    0.15936E-03   -0.26632E-03  5632   0.279E-02    0.405E-02
DAV: 194    -0.359187904315E+04    0.25127E-03   -0.20446E-03  5888   0.146E-02    0.405E-02
DAV: 195    -0.359187909643E+04   -0.53288E-04   -0.75087E-04  5632   0.100E-02    0.368E-02
DAV: 196    -0.359187903423E+04    0.62205E-04   -0.72921E-04  5760   0.802E-03    0.356E-02
DAV: 197    -0.359187878330E+04    0.25093E-03   -0.18294E-03  5632   0.150E-02    0.397E-02
DAV: 198    -0.359187904171E+04   -0.25841E-03   -0.15289E-04  5120   0.128E-02    0.355E-02
DAV: 199    -0.359187897817E+04    0.63535E-04   -0.19829E-04  5504   0.632E-03    0.356E-02
DAV: 200    -0.359187811872E+04    0.85945E-03   -0.67906E-03  5504   0.339E-02    0.462E-02
DAV: 201    -0.359187825579E+04   -0.13707E-03   -0.19300E-03  5632   0.164E-02    0.402E-02
DAV: 202    -0.359187804250E+04    0.21329E-03   -0.29895E-03  5376   0.176E-02    0.400E-02
DAV: 203    -0.359187858001E+04   -0.53751E-03   -0.39697E-04  5120   0.190E-02    0.322E-02
DAV: 204    -0.359187851374E+04    0.66272E-04   -0.20375E-04  6272   0.515E-03    0.348E-02
DAV: 205    -0.359187843501E+04    0.78734E-04   -0.51137E-04  5760   0.860E-03    0.334E-02
DAV: 206    -0.359187845941E+04   -0.24401E-04   -0.22090E-04  5632   0.531E-03    0.310E-02
DAV: 207    -0.359187629974E+04    0.21597E-02   -0.23019E-02  5504   0.618E-02    0.631E-02
DAV: 208    -0.359187808735E+04   -0.17876E-02   -0.10474E-03  5376   0.290E-02    0.327E-02
DAV: 209    -0.359187833519E+04   -0.24784E-03   -0.12088E-04  5120   0.118E-02    0.233E-02
DAV: 210    -0.359187820189E+04    0.13329E-03   -0.10632E-03  5632   0.145E-02    0.269E-02
DAV: 211    -0.359187833489E+04   -0.13300E-03   -0.95021E-05  5120   0.946E-03    0.191E-02
DAV: 212    -0.359187796428E+04    0.37061E-03   -0.33228E-03  5632   0.254E-02    0.330E-02
DAV: 213    -0.359187827018E+04   -0.30590E-03   -0.23502E-04  5632   0.117E-02    0.232E-02
DAV: 214    -0.359187829832E+04   -0.28139E-04   -0.24651E-05  5120   0.556E-03    0.228E-02
DAV: 215    -0.359187828120E+04    0.17119E-04   -0.44528E-05  5504   0.401E-03    0.225E-02
DAV: 216    -0.359187828625E+04   -0.50505E-05   -0.14311E-05  6144   0.181E-03    0.234E-02
DAV: 217    -0.359187814084E+04    0.14541E-03   -0.11054E-03  5504   0.158E-02    0.328E-02
DAV: 218    -0.359187816122E+04   -0.20373E-04   -0.81756E-04  5504   0.187E-02    0.292E-02
DAV: 219    -0.359187801417E+04    0.14704E-03   -0.11622E-03  5760   0.126E-02    0.278E-02
DAV: 220    -0.359187806497E+04   -0.50798E-04   -0.71434E-04  5760   0.107E-02    0.299E-02
DAV: 221    -0.359187811640E+04   -0.51432E-04   -0.65164E-04  5632   0.838E-03    0.236E-02
DAV: 222    -0.359187717402E+04    0.94238E-03   -0.98495E-03  5888   0.431E-02    0.478E-02
DAV: 223    -0.359187829049E+04   -0.11165E-02   -0.46400E-04  5248   0.217E-02    0.345E-02
DAV: 224    -0.359187838617E+04   -0.95678E-04   -0.32840E-05  5248   0.603E-03    0.330E-02
DAV: 225    -0.359187838524E+04    0.92901E-06   -0.16254E-04  5760   0.607E-03    0.302E-02
DAV: 226    -0.359187832674E+04    0.58497E-04   -0.12696E-03  5760   0.169E-02    0.218E-02
DAV: 227    -0.359187789969E+04    0.42705E-03   -0.43705E-03  5632   0.254E-02    0.275E-02
DAV: 228    -0.359187835438E+04   -0.45469E-03   -0.23521E-04  5120   0.160E-02    0.137E-02
DAV: 229    -0.359187834961E+04    0.47771E-05   -0.13567E-05  6016   0.233E-03    0.147E-02
DAV: 230    -0.359187834811E+04    0.14958E-05   -0.36260E-06  5376   0.171E-03    0.146E-02
DAV: 231    -0.359187834792E+04    0.18672E-06   -0.67565E-06  5760   0.125E-03
 augmentation electrons   1804.89170787008     
 soft         electrons  0.000000000000000E+000
 total        electrons   1804.89170787008     
 augmentation electrons -7.093900807085937E-002
 soft         electrons  0.000000000000000E+000
 total        electrons -7.093900807085937E-002
 augmentation electrons   1925.15278636745     
 soft         electrons  0.000000000000000E+000
 total        electrons   1925.15278636745     
 augmentation electrons   1868.52975442545     
 soft         electrons  0.000000000000000E+000
 total        electrons   1868.52975442545     
 augmentation electrons   56.1890276959294     
 soft         electrons   1748.70260575824     
 total        electrons   1804.89163345417     
 augmentation electrons   32.5649050775868     
 soft         electrons   1748.70260575824     
 total        electrons   50.9522244915934     
 translations:           0           1           0
   2 F= -.36295332E+04 E0= -.36295321E+04  d E =-.215275E+01  mag=    51.0232
 trial-energy change:   -2.152747  1 .order   -0.273635   -0.376205   -0.171064
 step:   1.0147(harm=  1.8339)  dis= 0.02906  next Energy= -3629.534505 (dE=-0.215E+01)
 bond charge predicted
       N       E                     dE             d eps       ncg     rms          rms(c)
DAV:   1    -0.359188058703E+04   -0.22389E-02   -0.64028E-03  5504   0.532E-02    0.721E-02
DAV:   2    -0.359188059886E+04   -0.11825E-04   -0.52495E-04  5504   0.243E-02    0.580E-02
DAV:   3    -0.359188067146E+04   -0.72606E-04   -0.63495E-05  5120   0.984E-03    0.200E-02
DAV:   4    -0.359188067228E+04   -0.81197E-06   -0.11213E-05  5632   0.288E-03    0.109E-02
DAV:   5    -0.359188067372E+04   -0.14425E-05   -0.46025E-06  4864   0.158E-03    0.904E-03
DAV:   6    -0.359188067540E+04   -0.16842E-05   -0.81552E-06  5504   0.154E-03    0.588E-03
DAV:   7    -0.359188067741E+04   -0.20120E-05   -0.11080E-05  5504   0.142E-03    0.394E-03
DAV:   8    -0.359188067929E+04   -0.18737E-05   -0.25217E-06  5248   0.809E-04    0.360E-03
DAV:   9    -0.359188068053E+04   -0.12427E-05   -0.20339E-06  5120   0.521E-04    0.357E-03
DAV:  10    -0.359188068233E+04   -0.17953E-05   -0.55799E-06  5376   0.826E-04    0.369E-03
DAV:  11    -0.359188068388E+04   -0.15528E-05   -0.30217E-06  5120   0.566E-04    0.370E-03
DAV:  12    -0.359188067304E+04    0.10841E-04   -0.38810E-05  5760   0.327E-03    0.417E-03
DAV:  13    -0.359188067788E+04   -0.48450E-05   -0.11710E-06  4608   0.122E-03    0.360E-03
DAV:  14    -0.359188065719E+04    0.20691E-04   -0.10861E-04  5888   0.437E-03    0.538E-03
DAV:  15    -0.359188062896E+04    0.28235E-04   -0.22051E-04  5888   0.524E-03    0.732E-03
DAV:  16    -0.359188058580E+04    0.43155E-04   -0.43482E-04  5888   0.713E-03    0.991E-03
DAV:  17    -0.359188058828E+04   -0.24745E-05   -0.33714E-04  5632   0.575E-03    0.960E-03
DAV:  18    -0.359188063488E+04   -0.46605E-04   -0.26753E-05  5248   0.485E-03    0.508E-03
DAV:  19    -0.359188063540E+04   -0.51988E-06   -0.71739E-06  5888   0.134E-03
 augmentation electrons   1804.89226762312     
 soft         electrons  0.000000000000000E+000
 total        electrons   1804.89226762312     
 augmentation electrons -7.096183031748697E-002
 soft         electrons  0.000000000000000E+000
 total        electrons -7.096183031748697E-002
 augmentation electrons   1925.73248334985     
 soft         electrons  0.000000000000000E+000
 total        electrons   1925.73248334985     
 augmentation electrons   1869.10945140785     
 soft         electrons  0.000000000000000E+000
 total        electrons   1869.10945140785     
 augmentation electrons   56.1899416141570     
 soft         electrons   1748.70225173119     
 total        electrons   1804.89219334534     
 augmentation electrons   32.5658660883978     
 soft         electrons   1748.70225173119     
 total        electrons   50.9524612438086     
 translations:           0           1           0
   3 F= -.36295357E+04 E0= -.36295345E+04  d E =-.215519E+01  mag=    51.0234
 curvature:  -0.03 expect dE=-0.855E-02 dE for cont linesearch -0.241E-02
 ZBRENT: increasing intervall
 opt :   1.0441  next Energy= -3629.540545 (dE=-0.216E+01)
 bond charge predicted
       N       E                     dE             d eps       ncg     rms          rms(c)
DAV:   1    -0.359188503045E+04   -0.43956E-02   -0.22604E-02  5248   0.970E-02    0.805E-02
DAV:   2    -0.359188512353E+04   -0.93081E-04   -0.10972E-03  6144   0.238E-02    0.492E-02
DAV:   3    -0.359188512197E+04    0.15588E-05   -0.33941E-05  5888   0.621E-03    0.252E-02
DAV:   4    -0.359188512053E+04    0.14452E-05   -0.40116E-06  6016   0.149E-03    0.165E-02
DAV:   5    -0.359188511919E+04    0.13428E-05   -0.69255E-06  5248   0.225E-03    0.950E-03
DAV:   6    -0.359188511917E+04    0.10448E-07   -0.62934E-06  5760   0.208E-03
 augmentation electrons   1804.89350607833     
 soft         electrons  0.000000000000000E+000
 total        electrons   1804.89350607833     
 augmentation electrons -7.097726665006038E-002
 soft         electrons  0.000000000000000E+000
 total        electrons -7.097726665006038E-002
 augmentation electrons   1926.91382893491     
 soft         electrons  0.000000000000000E+000
 total        electrons   1926.91382893491     
 augmentation electrons   1870.29079699291     
 soft         electrons  0.000000000000000E+000
 total        electrons   1870.29079699291     
 augmentation electrons   56.1917127605064     
 soft         electrons   1748.70171929500     
 total        electrons   1804.89343205551     
 augmentation electrons   32.5676854834168     
 soft         electrons   1748.70171929500     
 total        electrons   50.9520930397753     
 translations:           0           1           0
   4 F= -.36295405E+04 E0= -.36295394E+04  d E =-.216005E+01  mag=    51.0231
 curvature:  -0.06 expect dE=-0.176E-01 dE for cont linesearch -0.447E-02
 ZBRENT: increasing intervall
 opt :   1.1028  next Energy= -3629.549618 (dE=-0.217E+01)
 bond charge predicted
       N       E                     dE             d eps       ncg     rms          rms(c)
DAV:   1    -0.359189318048E+04   -0.80613E-02   -0.90731E-02  5248   0.194E-01    0.160E-01
DAV:   2    -0.359189355260E+04   -0.37212E-03   -0.43260E-03  6144   0.454E-02    0.957E-02
DAV:   3    -0.359189354309E+04    0.95072E-05   -0.11887E-04  6400   0.101E-02    0.504E-02
DAV:   4    -0.359189353692E+04    0.61711E-05   -0.13038E-05  6656   0.277E-03    0.328E-02
DAV:   5    -0.359189353037E+04    0.65535E-05   -0.21332E-05  6400   0.400E-03    0.143E-02
DAV:   6    -0.359189353075E+04   -0.38862E-06   -0.98276E-06  6272   0.285E-03
 augmentation electrons   1804.89621858823     
 soft         electrons  0.000000000000000E+000
 total        electrons   1804.89621858823     
 augmentation electrons -7.098294666878265E-002
 soft         electrons  0.000000000000000E+000
 total        electrons -7.098294666878265E-002
 augmentation electrons   1929.36872620501     
 soft         electrons  0.000000000000000E+000
 total        electrons   1929.36872620501     
 augmentation electrons   1872.74569426301     
 soft         electrons  0.000000000000000E+000
 total        electrons   1872.74569426301     
 augmentation electrons   56.1955000195774     
 soft         electrons   1748.70064499396     
 total        electrons   1804.89614501354     
 augmentation electrons   32.5713561102838     
 soft         electrons   1748.70064499396     
 total        electrons   50.9515792853020     
 translations:           0           1           0
   5 F= -.36295497E+04 E0= -.36295486E+04  d E =-.216919E+01  mag=    51.0226
 curvature:  -0.13 expect dE=-0.372E-01 dE for cont linesearch -0.775E-02
 ZBRENT: increasing intervall
 opt :   1.2203  next Energy= -3629.565772 (dE=-0.219E+01)
 bond charge predicted
       N       E                     dE             d eps       ncg     rms          rms(c)
DAV:   1    -0.359190718793E+04   -0.13658E-01   -0.36214E-01  5248   0.387E-01    0.317E-01
DAV:   2    -0.359190867897E+04   -0.14910E-02   -0.17225E-02  6144   0.897E-02    0.187E-01
DAV:   3    -0.359190864370E+04    0.35261E-04   -0.45356E-04  6400   0.187E-02    0.997E-02
DAV:   4    -0.359190861968E+04    0.24024E-04   -0.46342E-05  6528   0.520E-03    0.649E-02
DAV:   5    -0.359190859475E+04    0.24929E-04   -0.77831E-05  6400   0.780E-03    0.256E-02
[...]
DAV:   1    -0.359240570115E+04   -0.38892E-04   -0.16092E-02  5120   0.149E-01    0.473E-02
DAV:   2    -0.359240576050E+04   -0.59351E-04   -0.62601E-04  5888   0.211E-02    0.250E-02
DAV:   3    -0.359240576222E+04   -0.17190E-05   -0.20694E-05  5632   0.482E-03    0.148E-02
DAV:   4    -0.359240576131E+04    0.91633E-06   -0.37716E-06  7040   0.203E-03
 augmentation electrons   1804.89728575748     
 soft         electrons  0.000000000000000E+000
 total        electrons   1804.89728575748     
 augmentation electrons -6.748458301624245E-002
 soft         electrons  0.000000000000000E+000
 total        electrons -6.748458301624245E-002
 augmentation electrons   1914.06217363557     
 soft         electrons  0.000000000000000E+000
 total        electrons   1914.06217363557     
 augmentation electrons   1857.43914169357     
 soft         electrons  0.000000000000000E+000
 total        electrons   1857.43914169357     
 augmentation electrons   56.2191156155652     
 soft         electrons   1748.67811389120     
 total        electrons   1804.89722950677     
 augmentation electrons   32.6295679353948     
 soft         electrons   1748.67811389120     
 total        electrons   50.9677963396232     
 translations:           0           1           0
 132 F= -.36300559E+04 E0= -.36300543E+04  d E =-.118760E-02  mag=    51.0353
 curvature:  -1.73 expect dE=-0.556E-02 dE for cont linesearch -0.290E-04
 ZBRENT: increasing intervall
 opt :   0.5609  next Energy= -3630.055930 (dE=-0.121E-02)
 bond charge predicted
       N       E                     dE             d eps       ncg     rms          rms(c)
DAV:   1    -0.359240553891E+04    0.22332E-03   -0.64049E-02  5120   0.299E-01    0.940E-02
DAV:   2    -0.359240577476E+04   -0.23585E-03   -0.24895E-03  5888   0.422E-02    0.505E-02
DAV:   3    -0.359240578158E+04   -0.68262E-05   -0.85710E-05  5632   0.102E-02    0.299E-02
DAV:   4    -0.359240577821E+04    0.33724E-05   -0.11576E-05  7168   0.366E-03    0.179E-02
DAV:   5    -0.359240577786E+04    0.34976E-06   -0.75889E-06  6144   0.342E-03
 augmentation electrons   1804.89807976499     
 soft         electrons  0.000000000000000E+000
 total        electrons   1804.89807976499     
 augmentation electrons -6.742842551314969E-002
 soft         electrons  0.000000000000000E+000
 total        electrons -6.742842551314969E-002
 augmentation electrons   1913.36378252842     
 soft         electrons  0.000000000000000E+000
 total        electrons   1913.36378252842     
 augmentation electrons   1856.74075058642     
 soft         electrons  0.000000000000000E+000
 total        electrons   1856.74075058642     
 augmentation electrons   56.2194999362657     
 soft         electrons   1748.67852354761     
 total        electrons   1804.89802348387     
 augmentation electrons   32.6296431077838     
 soft         electrons   1748.67852354761     
 total        electrons   50.9674474167051     
 translations:           0           1           0
 133 F= -.36300561E+04 E0= -.36300544E+04  d E =-.135657E-02  mag=    51.0349
 curvature:  -1.29 expect dE=-0.683E-02 dE for cont linesearch -0.103E-04
 trial: gam= 1.13748 g(F)=  0.528E-02 g(S)=  0.000E+00 ort =-0.576E-03 (trialstep = 0.261E+00)
 search vector abs. value=  0.578E-01
 bond charge predicted
       N       E                     dE             d eps       ncg     rms          rms(c)
DAV:   1    -0.359240586311E+04   -0.84898E-04   -0.21858E-01  5120   0.547E-01    0.179E-01
DAV:   2    -0.359240662162E+04   -0.75851E-03   -0.84500E-03  5632   0.846E-02    0.114E-01
DAV:   3    -0.359240664944E+04   -0.27818E-04   -0.45426E-04  5632   0.268E-02    0.626E-02
DAV:   4    -0.359240663907E+04    0.10375E-04   -0.56637E-05  6784   0.873E-03    0.419E-02
DAV:   5    -0.359240663317E+04    0.58954E-05   -0.49399E-05  6144   0.957E-03    0.274E-02
DAV:   6    -0.359240663291E+04    0.25948E-06   -0.21674E-05  5760   0.601E-03    0.809E-03
DAV:   7    -0.359240663381E+04   -0.90114E-06   -0.44617E-06  5376   0.203E-03
 augmentation electrons   1804.89881854409     
 soft         electrons  0.000000000000000E+000
 total        electrons   1804.89881854409     
 augmentation electrons -6.746948806280934E-002
 soft         electrons  0.000000000000000E+000
 total        electrons -6.746948806280934E-002
 augmentation electrons   1912.39446390460     
 soft         electrons  0.000000000000000E+000
 total        electrons   1912.39446390460     
 augmentation electrons   1855.77143196260     
 soft         electrons  0.000000000000000E+000
 total        electrons   1855.77143196260     
 augmentation electrons   56.2206462391970     
 soft         electrons   1748.67811599762     
 total        electrons   1804.89876223682     
 augmentation electrons   32.6298261591695     
 soft         electrons   1748.67811599762     
 total        electrons   50.9682676838325     
 translations:           0           1           0
 134 F= -.36300570E+04 E0= -.36300553E+04  d E =-.890642E-03  mag=    51.0357
 trial-energy change:   -0.000891  1 .order   -0.000849   -0.001204   -0.000493
 step:   0.3800(harm=  0.4415)  dis= 0.00171  next Energy= -3630.057085 (dE=-0.101E-02)
 bond charge predicted
       N       E                     dE             d eps       ncg     rms          rms(c)
DAV:   1    -0.359240663218E+04    0.73251E-06   -0.46157E-02  5120   0.251E-01    0.833E-02
DAV:   2    -0.359240678940E+04   -0.15722E-03   -0.18221E-03  5760   0.403E-02    0.542E-02
DAV:   3    -0.359240679543E+04   -0.60387E-05   -0.10237E-04  5632   0.126E-02    0.290E-02
DAV:   4    -0.359240679321E+04    0.22244E-05   -0.13520E-05  6784   0.359E-03    0.190E-02
DAV:   5    -0.359240679223E+04    0.98001E-06   -0.11336E-05  6400   0.446E-03    0.133E-02
DAV:   6    -0.359240679244E+04   -0.20544E-06   -0.80375E-06  5760   0.319E-03
 augmentation electrons   1804.89910326355     
 soft         electrons  0.000000000000000E+000
 total        electrons   1804.89910326355     
 augmentation electrons -6.751641671091203E-002
 soft         electrons  0.000000000000000E+000
 total        electrons -6.751641671091203E-002
 augmentation electrons   1911.94666061794     
 soft         electrons  0.000000000000000E+000
 total        electrons   1911.94666061794     
 augmentation electrons   1855.32362867594     
 soft         electrons  0.000000000000000E+000
 total        electrons   1855.32362867594     
 augmentation electrons   56.2207602970976     
 soft         electrons   1748.67828665853     
 total        electrons   1804.89904695563     
 augmentation electrons   32.6297921389512     
 soft         electrons   1748.67828665853     
 total        electrons   50.9681279180585     
 translations:           0           1           0
 135 F= -.36300572E+04 E0= -.36300555E+04  d E =-.111097E-02  mag=    51.0356
 curvature:  -2.44 expect dE=-0.940E-02 dE for cont linesearch -0.218E-04
 trial: gam= 0.37927 g(F)=  0.385E-02 g(S)=  0.000E+00 ort = 0.718E-03 (trialstep = 0.284E+00)
 search vector abs. value=  0.127E-01
 bond charge predicted
       N       E                     dE             d eps       ncg     rms          rms(c)
DAV:   1    -0.359240733100E+04   -0.53877E-03   -0.65259E-02  5248   0.290E-01    0.894E-02
DAV:   2    -0.359240752989E+04   -0.19888E-03   -0.23152E-03  6272   0.445E-02    0.544E-02
DAV:   3    -0.359240753126E+04   -0.13722E-05   -0.10780E-04  5632   0.124E-02    0.323E-02
DAV:   4    -0.359240752720E+04    0.40579E-05   -0.16207E-05  7040   0.418E-03    0.198E-02
DAV:   5    -0.359240752625E+04    0.94963E-06   -0.99830E-06  6144   0.428E-03
 augmentation electrons   1804.89922906918     
 soft         electrons  0.000000000000000E+000
 total        electrons   1804.89922906918     
 augmentation electrons -6.750939173256527E-002
 soft         electrons  0.000000000000000E+000
 total        electrons -6.750939173256527E-002
 augmentation electrons   1911.88778097458     
 soft         electrons  0.000000000000000E+000
 total        electrons   1911.88778097458     
 augmentation electrons   1855.26474903258     
 soft         electrons  0.000000000000000E+000
 total        electrons   1855.26474903258     
 augmentation electrons   56.2217399442573     
 soft         electrons   1748.67743277726     
 total        electrons   1804.89917272152     
 augmentation electrons   32.6299145581683     
 soft         electrons   1748.67743277726     
 total        electrons   50.9688244367753     
 translations:           0           1           0
 136 F= -.36300579E+04 E0= -.36300562E+04  d E =-.683216E-03  mag=    51.0363
 trial-energy change:   -0.000683  1 .order   -0.000814   -0.001173   -0.000455
 step:   0.4649(harm=  0.4649)  dis= 0.00090  next Energy= -3630.058147 (dE=-0.958E-03)
 bond charge predicted
       N       E                     dE             d eps       ncg     rms          rms(c)
DAV:   1    -0.359240758128E+04   -0.54083E-04   -0.26102E-02  5760   0.186E-01    0.778E-02
DAV:   2    -0.359240761430E+04   -0.33020E-04   -0.12658E-03  6272   0.462E-02    0.832E-02
DAV:   3    -0.359240762609E+04   -0.11786E-04   -0.15412E-04  5760   0.163E-02    0.331E-02
DAV:   4    -0.359240762126E+04    0.48249E-05   -0.29129E-05  6400   0.642E-03    0.169E-02
DAV:   5    -0.359240762139E+04   -0.12272E-06   -0.10698E-05  5760   0.342E-03    0.114E-02
DAV:   6    -0.359240762164E+04   -0.25780E-06   -0.80234E-06  5888   0.269E-03
 augmentation electrons   1804.89933030431     
 soft         electrons  0.000000000000000E+000
 total        electrons   1804.89933030431     
 augmentation electrons -6.748678995632845E-002
 soft         electrons  0.000000000000000E+000
 total        electrons -6.748678995632845E-002
 augmentation electrons   1911.84630257196     
 soft         electrons  0.000000000000000E+000
 total        electrons   1911.84630257196     
 augmentation electrons   1855.22327062996     
 soft         electrons  0.000000000000000E+000
 total        electrons   1855.22327062996     
 augmentation electrons   56.2215612528758     
 soft         electrons   1748.67771268510     
 total        electrons   1804.89927393798     
 augmentation electrons   32.6299529228201     
 soft         electrons   1748.67771268510     
 total        electrons   50.9682539469414     
 translations:           0           1           0
 137 F= -.36300580E+04 E0= -.36300564E+04  d E =-.848237E-03  mag=    51.0357
 curvature:  -0.72 expect dE=-0.213E-02 dE for cont linesearch -0.149E-06
 trial: gam= 0.88022 g(F)=  0.298E-02 g(S)=  0.000E+00 ort = 0.515E-04 (trialstep = 0.315E+00)
 search vector abs. value=  0.129E-01
 bond charge predicted
       N       E                     dE             d eps       ncg     rms          rms(c)
DAV:   1    -0.359240792124E+04   -0.29985E-03   -0.74584E-02  5376   0.318E-01    0.101E-01
DAV:   2    -0.359240818440E+04   -0.26317E-03   -0.28574E-03  6016   0.461E-02    0.564E-02
DAV:   3    -0.359240819359E+04   -0.91833E-05   -0.11565E-04  5760   0.121E-02    0.334E-02
DAV:   4    -0.359240819013E+04    0.34611E-05   -0.13561E-05  6912   0.395E-03    0.209E-02
DAV:   5    -0.359240818954E+04    0.58538E-06   -0.10023E-05  6144   0.372E-03    0.983E-03
DAV:   6    -0.359240819034E+04   -0.80161E-06   -0.60845E-06  5248   0.270E-03
 augmentation electrons   1804.89892856094     
 soft         electrons  0.000000000000000E+000
 total        electrons   1804.89892856094     
 augmentation electrons -6.753276206735803E-002
 soft         electrons  0.000000000000000E+000
 total        electrons -6.753276206735803E-002
 augmentation electrons   1912.06082345920     
 soft         electrons  0.000000000000000E+000
 total        electrons   1912.06082345920     
 augmentation electrons   1855.43779151720     
 soft         electrons  0.000000000000000E+000
 total        electrons   1855.43779151720     
 augmentation electrons   56.2215553799977     
 soft         electrons   1748.67731669383     
 total        electrons   1804.89887207383     
 augmentation electrons   32.6300870702861     
 soft         electrons   1748.67731669383     
 total        electrons   50.9685319355588     
 translations:           0           1           0
 138 F= -.36300586E+04 E0= -.36300569E+04  d E =-.567878E-03  mag=    51.0361
 trial-energy change:   -0.000568  1 .order   -0.000696   -0.000954   -0.000439
 step:   0.5835(harm=  0.5835)  dis= 0.00125  next Energy= -3630.058920 (dE=-0.883E-03)
 bond charge predicted
       N       E                     dE             d eps       ncg     rms          rms(c)
DAV:   1    -0.359240809161E+04    0.97933E-04   -0.54044E-02  5376   0.270E-01    0.865E-02
DAV:   2    -0.359240828305E+04   -0.19144E-03   -0.20711E-03  6016   0.391E-02    0.475E-02
DAV:   3    -0.359240828963E+04   -0.65759E-05   -0.80548E-05  5760   0.994E-03    0.281E-02
DAV:   4    -0.359240828712E+04    0.25005E-05   -0.10438E-05  6912   0.345E-03    0.175E-02
DAV:   5    -0.359240828702E+04    0.99593E-07   -0.83714E-06  6144   0.311E-03
 augmentation electrons   1804.89862169854     
 soft         electrons  0.000000000000000E+000
 total        electrons   1804.89862169854     
 augmentation electrons -6.751562783178616E-002
 soft         electrons  0.000000000000000E+000
 total        electrons -6.751562783178616E-002
 augmentation electrons   1912.23413691417     
 soft         electrons  0.000000000000000E+000
 total        electrons   1912.23413691417     
 augmentation electrons   1855.61110497217     
 soft         electrons  0.000000000000000E+000
 total        electrons   1855.61110497217     
 augmentation electrons   56.2219505544488     
 soft         electrons   1748.67661456281     
 total        electrons   1804.89856511726     
 augmentation electrons   32.6302094261906     
 soft         electrons   1748.67661456281     
 total        electrons   50.9691195827130     
 translations:           0           1           0
 139 F= -.36300587E+04 E0= -.36300570E+04  d E =-.616434E-03  mag=    51.0366
 curvature:  -1.25 expect dE=-0.370E-02 dE for cont linesearch -0.870E-06
 trial: gam= 0.82689 g(F)=  0.297E-02 g(S)=  0.000E+00 ort = 0.950E-04 (trialstep = 0.369E+00)
 search vector abs. value=  0.120E-01
 bond charge predicted
       N       E                     dE             d eps       ncg     rms          rms(c)
DAV:   1    -0.359240869171E+04   -0.40459E-03   -0.97543E-02  5376   0.364E-01    0.123E-01
DAV:   2    -0.359240903699E+04   -0.34528E-03   -0.40558E-03  6144   0.598E-02    0.809E-02
DAV:   3    -0.359240905546E+04   -0.18469E-04   -0.24932E-04  5632   0.192E-02    0.431E-02
DAV:   4    -0.359240905134E+04    0.41224E-05   -0.27216E-05  6656   0.498E-03    0.280E-02
DAV:   5    -0.359240904912E+04    0.22237E-05   -0.17435E-05  6144   0.580E-03    0.191E-02
DAV:   6    -0.359240904911E+04    0.44238E-08   -0.14909E-05  5760   0.456E-03    0.555E-03
DAV:   7    -0.359240905022E+04   -0.11095E-05   -0.36438E-06  5120   0.155E-03    0.380E-03
DAV:   8    -0.359240905073E+04   -0.50546E-06   -0.12415E-06  4992   0.885E-04
 augmentation electrons   1804.89731421540     
 soft         electrons  0.000000000000000E+000
 total        electrons   1804.89731421540     
 augmentation electrons -6.749482031110454E-002
 soft         electrons  0.000000000000000E+000
 total        electrons -6.749482031110454E-002
 augmentation electrons   1912.50022100783     
 soft         electrons  0.000000000000000E+000
 total        electrons   1912.50022100783     
 augmentation electrons   1855.87718906583     
 soft         electrons  0.000000000000000E+000
 total        electrons   1855.87718906583     
 augmentation electrons   56.2204123222396     
 soft         electrons   1748.67684515487     
 total        electrons   1804.89725747711     
 augmentation electrons   32.6302339381881     
 soft         electrons   1748.67684515487     
 total        electrons   50.9690755877910     
 translations:           0           1           0
 140 F= -.36300594E+04 E0= -.36300577E+04  d E =-.776538E-03  mag=    51.0366
 trial-energy change:   -0.000777  1 .order   -0.000698   -0.001125   -0.000271
 step:   0.4394(harm=  0.4860)  dis= 0.00104  next Energy= -3630.059456 (dE=-0.803E-03)
 bond charge predicted
       N       E                     dE             d eps       ncg     rms          rms(c)
DAV:   1    -0.359240908729E+04   -0.37063E-04   -0.35901E-03  5632   0.696E-02    0.230E-02
DAV:   2    -0.359240910125E+04   -0.13963E-04   -0.14908E-04  6144   0.104E-02    0.123E-02
DAV:   3    -0.359240910226E+04   -0.10133E-05   -0.61098E-06  5120   0.250E-03    0.747E-03
DAV:   4    -0.359240910269E+04   -0.43144E-06   -0.26050E-06  6016   0.120E-03
 augmentation electrons   1804.89703290827     
 soft         electrons  0.000000000000000E+000
 total        electrons   1804.89703290827     
 augmentation electrons -6.751430997124128E-002
 soft         electrons  0.000000000000000E+000
 total        electrons -6.751430997124128E-002
 augmentation electrons   1912.54932816306     
 soft         electrons  0.000000000000000E+000
 total        electrons   1912.54932816306     
 augmentation electrons   1855.92629622106     
 soft         electrons  0.000000000000000E+000
 total        electrons   1855.92629622106     
 augmentation electrons   56.2201478299097     
 soft         electrons   1748.67682831131     
 total        electrons   1804.89697614122     
 augmentation electrons   32.6302493875530     
 soft         electrons   1748.67682831131     
 total        electrons   50.9692124865526     
 translations:           0           1           0
 141 F= -.36300595E+04 E0= -.36300578E+04  d E =-.818686E-03  mag=    51.0367
 curvature:  -0.80 expect dE=-0.165E-02 dE for cont linesearch -0.614E-05
 trial: gam= 0.59821 g(F)=  0.206E-02 g(S)=  0.000E+00 ort = 0.302E-03 (trialstep = 0.383E+00)
 search vector abs. value=  0.670E-02
 bond charge predicted
       N       E                     dE             d eps       ncg     rms          rms(c)
DAV:   1    -0.359240958675E+04   -0.48449E-03   -0.60427E-02  5376   0.285E-01    0.918E-02
DAV:   2    -0.359240981964E+04   -0.23288E-03   -0.24941E-03  6144   0.420E-02    0.486E-02
DAV:   3    -0.359240982574E+04   -0.61089E-05   -0.83609E-05  5888   0.946E-03    0.289E-02
DAV:   4    -0.359240982232E+04    0.34281E-05   -0.12463E-05  7168   0.366E-03    0.177E-02
DAV:   5    -0.359240982245E+04   -0.13589E-06   -0.10772E-05  6400   0.310E-03    0.567E-03
DAV:   6    -0.359240982374E+04   -0.12838E-05   -0.42083E-06  5632   0.167E-03    0.325E-03
DAV:   7    -0.359240982457E+04   -0.83161E-06   -0.16416E-06  4992   0.772E-04
 augmentation electrons   1804.89614467417     
 soft         electrons  0.000000000000000E+000
 total        electrons   1804.89614467417     
 augmentation electrons -6.755817273636487E-002
 soft         electrons  0.000000000000000E+000
 total        electrons -6.755817273636487E-002
 augmentation electrons   1912.61552614137     
 soft         electrons  0.000000000000000E+000
 total        electrons   1912.61552614137     
 augmentation electrons   1855.99249419937     
 soft         electrons  0.000000000000000E+000
 total        electrons   1855.99249419937     
 augmentation electrons   56.2190029603758     
 soft         electrons   1748.67708478850     
 total        electrons   1804.89608774887     
 augmentation electrons   32.6301255321970     
 soft         electrons   1748.67708478850     
 total        electrons   50.9693214806785     
 translations:           0           1           0
 142 F= -.36300603E+04 E0= -.36300586E+04  d E =-.795792E-03  mag=    51.0369
 trial-energy change:   -0.000796  1 .order   -0.000576   -0.000857   -0.000294
 step:   0.4375(harm=  0.5833)  dis= 0.00085  next Energy= -3630.060289 (dE=-0.817E-03)
 reached required accuracy - stopping structural energy minimisation
 writing wavefunctions
