 ----------------------------------------------------
    OOO  PPPP  EEEEE N   N M   M PPPP
   O   O P   P E     NN  N MM MM P   P
   O   O PPPP  EEEEE N N N M M M PPPP   -- VERSION
   O   O P     E     N  NN M   M P
    OOO  P     EEEEE N   N M   M P
 ----------------------------------------------------
 running  512 mpi-ranks, with    1 threads/rank
 distrk:  each k-point on  512 cores,    1 groups
 distr:  one band on    4 cores,  128 groups
 vasp.6.3.2 27Jun22 (build Nov 12 2024 19:13:04) complex                        
  
 POSCAR found type information on POSCAR MnBrN C H 
 POSCAR found :  5 types and     636 ions
 scaLAPACK will be used
 LDA part: xc-table for Pade appr. of Perdew
 POSCAR, INCAR and KPOINTS ok, starting setup
 FFT: planning ... GRIDC
 FFT: planning ... GRID_SOFT
 FFT: planning ... GRID
 WAVECAR not read
 entering main loop
       N       E                     dE             d eps       ncg     rms          rms(c)
DAV:   1     0.988714705806E+04    0.98871E+04   -0.80690E+05  5376   0.120E+03
DAV:   2    -0.260043593625E+04   -0.12488E+05   -0.12047E+05  6272   0.260E+02
DAV:   3    -0.384680106889E+04   -0.12464E+04   -0.12353E+04  6400   0.875E+01
DAV:   4    -0.387998141110E+04   -0.33180E+02   -0.32997E+02  6656   0.162E+01
DAV:   5    -0.388100887329E+04   -0.10275E+01   -0.10263E+01  6656   0.271E+00    0.137E+02
DAV:   6    -0.401992121809E+04   -0.13891E+03   -0.32899E+03  6400   0.377E+01    0.292E+02
DAV:   7    -0.363288166909E+04    0.38704E+03   -0.58618E+02  6528   0.303E+01    0.109E+02
DAV:   8    -0.360327625673E+04    0.29605E+02   -0.33990E+02  6528   0.271E+01    0.772E+01
DAV:   9    -0.366129765889E+04   -0.58021E+02   -0.18669E+02  6528   0.153E+01    0.108E+02
DAV:  10    -0.359066163234E+04    0.70636E+02   -0.25235E+02  6144   0.116E+01    0.618E+01
DAV:  11    -0.359881932355E+04   -0.81577E+01   -0.29790E+02  6144   0.795E+00    0.609E+01
DAV:  12    -0.358866315011E+04    0.10156E+02   -0.15457E+02  6144   0.888E+00    0.472E+01
DAV:  13    -0.359231219158E+04   -0.36490E+01   -0.11682E+02  6144   0.574E+00    0.393E+01
DAV:  14    -0.359792014324E+04   -0.56080E+01   -0.15092E+02  6656   0.517E+00    0.380E+01
DAV:  15    -0.359361097667E+04    0.43092E+01   -0.17136E+01  6272   0.409E+00    0.293E+01
DAV:  16    -0.359728744931E+04   -0.36765E+01   -0.14850E+00  6272   0.132E+00    0.271E+01
DAV:  17    -0.359949583976E+04   -0.22084E+01   -0.80778E-01  6144   0.109E+00    0.226E+01
DAV:  18    -0.360369598846E+04   -0.42001E+01   -0.15726E+00  6272   0.207E+00    0.134E+01
DAV:  19    -0.360456203407E+04   -0.86605E+00   -0.75625E-01  6656   0.126E+00    0.105E+01
DAV:  20    -0.360455898075E+04    0.30533E-02   -0.43932E-01  5888   0.839E-01    0.798E+00
DAV:  21    -0.360439214945E+04    0.16683E+00   -0.13482E-01  6528   0.775E-01    0.606E+00
DAV:  22    -0.360425378750E+04    0.13836E+00   -0.10084E-01  6528   0.583E-01    0.482E+00
DAV:  23    -0.360418434778E+04    0.69440E-01   -0.47213E-02  6528   0.268E-01    0.450E+00
DAV:  24    -0.360411764611E+04    0.66702E-01   -0.10122E-02  6656   0.248E-01    0.428E+00
DAV:  25    -0.360385652916E+04    0.26112E+00   -0.11340E-01  6656   0.103E+00    0.294E+00
DAV:  26    -0.360370239716E+04    0.15413E+00   -0.22310E-01  6656   0.997E-01    0.162E+00
DAV:  27    -0.360366779003E+04    0.34607E-01   -0.16335E-01  6400   0.649E-01    0.102E+00
DAV:  28    -0.360366049965E+04    0.72904E-02   -0.73860E-02  6528   0.368E-01    0.674E-01
DAV:  29    -0.360366284511E+04   -0.23455E-02   -0.23351E-02  6016   0.156E-01    0.523E-01
DAV:  30    -0.360366346165E+04   -0.61654E-03   -0.19610E-03  6400   0.588E-02    0.400E-01
DAV:  31    -0.360365736898E+04    0.60927E-02   -0.43693E-03  6912   0.241E-01    0.261E-01
DAV:  32    -0.360365530829E+04    0.20607E-02   -0.71441E-03  6912   0.221E-01    0.285E-01
DAV:  33    -0.360365597516E+04   -0.66687E-03   -0.67653E-03  6400   0.915E-02    0.282E-01
DAV:  34    -0.360365673665E+04   -0.76149E-03   -0.20023E-03  6528   0.848E-02    0.292E-01
DAV:  35    -0.360365808094E+04   -0.13443E-02   -0.16928E-03  6528   0.926E-02    0.323E-01
DAV:  36    -0.360365825066E+04   -0.16973E-03   -0.14233E-03  6272   0.387E-02    0.331E-01
DAV:  37    -0.360365773210E+04    0.51856E-03   -0.52549E-04  5888   0.385E-02    0.290E-01
DAV:  38    -0.360365654778E+04    0.11843E-02   -0.10554E-03  6272   0.740E-02    0.217E-01
DAV:  39    -0.360365643939E+04    0.10838E-03   -0.10331E-03  5632   0.294E-02    0.187E-01
DAV:  40    -0.360365575009E+04    0.68931E-03   -0.35266E-04  6784   0.498E-02    0.114E-01
DAV:  41    -0.360365528669E+04    0.46340E-03   -0.58768E-04  6656   0.622E-02    0.653E-02
DAV:  42    -0.360365521879E+04    0.67901E-04   -0.61145E-04  6656   0.495E-02    0.525E-02
DAV:  43    -0.360365528976E+04   -0.70976E-04   -0.40618E-04  6528   0.428E-02    0.603E-02
DAV:  44    -0.360365530670E+04   -0.16934E-04   -0.32165E-04  6144   0.172E-02    0.520E-02
DAV:  45    -0.360365525520E+04    0.51498E-04   -0.43971E-05  6784   0.156E-02    0.403E-02
DAV:  46    -0.360365521477E+04    0.40425E-04   -0.47663E-05  6784   0.153E-02    0.258E-02
DAV:  47    -0.360365520704E+04    0.77376E-05   -0.35288E-05  6400   0.114E-02    0.202E-02
DAV:  48    -0.360365520030E+04    0.67354E-05   -0.14250E-05  6528   0.646E-03    0.138E-02
DAV:  49    -0.360365519091E+04    0.93922E-05   -0.14973E-05  6784   0.991E-03    0.619E-03
DAV:  50    -0.360365519115E+04   -0.24293E-06   -0.11438E-05  6272   0.347E-03    0.530E-03
DAV:  51    -0.360365519095E+04    0.20226E-06   -0.13671E-06  5376   0.148E-03
 augmentation electrons   1811.87826754028     
 soft         electrons  0.000000000000000E+000
 total        electrons   1811.87826754028     
 augmentation electrons -8.132438945719472E-002
 soft         electrons  0.000000000000000E+000
 total        electrons -8.132438945719472E-002
 augmentation electrons   1923.93918884376     
 soft         electrons  0.000000000000000E+000
 total        electrons   1923.93918884376     
 augmentation electrons   1866.42202897176     
 soft         electrons  0.000000000000000E+000
 total        electrons   1866.42202897176     
 augmentation electrons   54.7898830601738     
 soft         electrons   1757.08829834404     
 total        electrons   1811.87818140421     
 augmentation electrons   37.4643768943577     
 soft         electrons   1757.08829834404     
 total        electrons   59.9186376368032     
 translations:           0           1           0
   1 F= -.36415498E+04 E0= -.36415498E+04  d E =-.364155E+04  mag=    60.0000
 curvature:   0.00 expect dE= 0.000E+00 dE for cont linesearch  0.000E+00
 trial: gam= 0.00000 g(F)=  0.366E+00 g(S)=  0.000E+00 ort = 0.000E+00 (trialstep = 0.100E+01)
 search vector abs. value=  0.366E+00
 bond charge predicted
       N       E                     dE             d eps       ncg     rms          rms(c)
DAV:   1    -0.360382491386E+04   -0.16972E+00   -0.25107E+01  5120   0.267E+00    0.255E+00
DAV:   2    -0.360391906099E+04   -0.94147E-01   -0.11221E+00  6144   0.638E-01    0.155E+00
DAV:   3    -0.360391586004E+04    0.32009E-02   -0.26212E-02  6400   0.120E-01    0.824E-01
DAV:   4    -0.360391414667E+04    0.17134E-02   -0.27411E-03  6528   0.339E-02    0.547E-01
DAV:   5    -0.360391272230E+04    0.14244E-02   -0.65248E-03  6656   0.561E-02    0.190E-01
DAV:   6    -0.360391279753E+04   -0.75233E-04   -0.12564E-03  6144   0.258E-02    0.522E-02
DAV:   7    -0.360391279025E+04    0.72857E-05   -0.55776E-05  6528   0.583E-03    0.322E-02
DAV:   8    -0.360391278532E+04    0.49289E-05   -0.71696E-06  6400   0.302E-03    0.181E-02
DAV:   9    -0.360391278318E+04    0.21422E-05   -0.81094E-06  6144   0.295E-03    0.689E-03
DAV:  10    -0.360391278296E+04    0.22196E-06   -0.34265E-06  6400   0.156E-03
 augmentation electrons   1811.87591148887     
 soft         electrons  0.000000000000000E+000
 total        electrons   1811.87591148887     
 augmentation electrons -8.153399454391747E-002
 soft         electrons  0.000000000000000E+000
 total        electrons -8.153399454391747E-002
 augmentation electrons   1945.14924710091     
 soft         electrons  0.000000000000000E+000
 total        electrons   1945.14924710091     
 augmentation electrons   1887.63208722891     
 soft         electrons  0.000000000000000E+000
 total        electrons   1887.63208722891     
 augmentation electrons   54.8080451498888     
 soft         electrons   1757.06779258415     
 total        electrons   1811.87583773404     
 augmentation electrons   37.5369658060989     
 soft         electrons   1757.06779258415     
 total        electrons   59.9184289840810     
 translations:           0           1           0
   2 F= -.36418244E+04 E0= -.36418244E+04  d E =-.274602E+00  mag=    60.0000
 trial-energy change:   -0.274602  1 .order   -0.273080   -0.366411   -0.179750
 step:   1.8818(harm=  1.9630)  dis= 0.05036  next Energy= -3641.904651 (dE=-0.355E+00)
 bond charge predicted
       N       E                     dE             d eps       ncg     rms          rms(c)
DAV:   1    -0.360393165353E+04   -0.18870E-01   -0.19456E+01  5120   0.236E+00    0.221E+00
DAV:   2    -0.360400381582E+04   -0.72162E-01   -0.85841E-01  6144   0.557E-01    0.129E+00
DAV:   3    -0.360400129651E+04    0.25193E-02   -0.19473E-02  6400   0.104E-01    0.700E-01
DAV:   4    -0.360400004245E+04    0.12541E-02   -0.19776E-03  6528   0.292E-02    0.460E-01
DAV:   5    -0.360399890492E+04    0.11375E-02   -0.46279E-03  6400   0.481E-02    0.170E-01
DAV:   6    -0.360399896858E+04   -0.63655E-04   -0.92543E-04  6144   0.219E-02    0.421E-02
DAV:   7    -0.360399896467E+04    0.39015E-05   -0.40387E-05  6528   0.506E-03    0.254E-02
DAV:   8    -0.360399896147E+04    0.32021E-05   -0.53956E-06  6016   0.259E-03    0.143E-02
DAV:   9    -0.360399896058E+04    0.89171E-06   -0.54003E-06  6144   0.238E-03
 augmentation electrons   1811.89365783780     
 soft         electrons  0.000000000000000E+000
 total        electrons   1811.89365783780     
 augmentation electrons -8.148884033972285E-002
 soft         electrons  0.000000000000000E+000
 total        electrons -8.148884033972285E-002
 augmentation electrons   1970.75609018831     
 soft         electrons  0.000000000000000E+000
 total        electrons   1970.75609018831     
 augmentation electrons   1913.23893031631     
 soft         electrons  0.000000000000000E+000
 total        electrons   1913.23893031631     
 augmentation electrons   54.8433027289549     
 soft         electrons   1757.05028117614     
 total        electrons   1811.89358390510     
 augmentation electrons   37.5970433950519     
 soft         electrons   1757.05028117614     
 total        electrons   59.9184750971953     
 translations:           0           1           0
   3 F= -.36419224E+04 E0= -.36419224E+04  d E =-.372654E+00  mag=    60.0000
 curvature:  -0.97 expect dE=-0.417E+00 dE for cont linesearch -0.420E-02
 trial: gam= 1.05995 g(F)=  0.428E+00 g(S)=  0.000E+00 ort = 0.398E-01 (trialstep = 0.466E+00)
 search vector abs. value=  0.924E+00
 bond charge predicted
       N       E                     dE             d eps       ncg     rms          rms(c)
DAV:   1    -0.360402064556E+04   -0.21684E-01   -0.16399E+01  5248   0.317E+00    0.174E+00
DAV:   2    -0.360407146246E+04   -0.50817E-01   -0.66088E-01  6016   0.606E-01    0.106E+00
DAV:   3    -0.360406784806E+04    0.36144E-02   -0.18359E-02  6400   0.123E-01    0.616E-01
DAV:   4    -0.360406629544E+04    0.15526E-02   -0.23281E-03  6656   0.403E-02    0.405E-01
DAV:   5    -0.360406496379E+04    0.13316E-02   -0.32059E-03  6528   0.537E-02    0.143E-01
DAV:   6    -0.360406502242E+04   -0.58631E-04   -0.10108E-03  6144   0.253E-02    0.328E-02
DAV:   7    -0.360406501651E+04    0.59148E-05   -0.53596E-05  6016   0.649E-03    0.199E-02
DAV:   8    -0.360406501218E+04    0.43217E-05   -0.79239E-06  6400   0.303E-03    0.967E-03
DAV:   9    -0.360406501067E+04    0.15180E-05   -0.34632E-06  6144   0.221E-03    0.458E-03
DAV:  10    -0.360406501031E+04    0.35734E-06   -0.15930E-06  5632   0.131E-03
 augmentation electrons   1811.91580891794     
 soft         electrons  0.000000000000000E+000
 total        electrons   1811.91580891794     
 augmentation electrons -8.148352309602062E-002
 soft         electrons  0.000000000000000E+000
 total        electrons -8.148352309602062E-002
 augmentation electrons   2003.84367363471     
 soft         electrons  0.000000000000000E+000
 total        electrons   2003.84367363471     
 augmentation electrons   1946.32651376271     
 soft         electrons  0.000000000000000E+000
 total        electrons   1946.32651376271     
 augmentation electrons   54.8681438751010     
 soft         electrons   1757.04758648584     
 total        electrons   1811.91573036094     
 augmentation electrons   37.6367577121368     
 soft         electrons   1757.04758648584     
 total        electrons   59.9184812741552     
 translations:           0           1           0
   4 F= -.36419990E+04 E0= -.36419990E+04  d E =-.765867E-01  mag=    60.0000
 trial-energy change:   -0.076587  1 .order   -0.068497   -0.219359    0.082364
 step:   0.3529(harm=  0.3391)  dis= 0.01422  next Energy= -3642.008898 (dE=-0.865E-01)
 bond charge predicted
       N       E                     dE             d eps       ncg     rms          rms(c)
DAV:   1    -0.360407402625E+04   -0.90156E-02   -0.97323E-01  5504   0.774E-01    0.437E-01
DAV:   2    -0.360407699714E+04   -0.29709E-02   -0.38782E-02  6016   0.150E-01    0.269E-01
DAV:   3    -0.360407679460E+04    0.20254E-03   -0.11370E-03  6400   0.309E-02    0.152E-01
DAV:   4    -0.360407670411E+04    0.90491E-04   -0.14039E-04  6656   0.997E-03    0.100E-01
DAV:   5    -0.360407663132E+04    0.72798E-04   -0.18856E-04  6528   0.134E-02    0.373E-02
DAV:   6    -0.360407663762E+04   -0.63069E-05   -0.67222E-05  6144   0.657E-03    0.829E-03
DAV:   7    -0.360407663714E+04    0.48097E-06   -0.41859E-06  5504   0.181E-03
 augmentation electrons   1811.91268127475     
 soft         electrons  0.000000000000000E+000
 total        electrons   1811.91268127475     
 augmentation electrons -8.137082441673213E-002
 soft         electrons  0.000000000000000E+000
 total        electrons -8.137082441673213E-002
 augmentation electrons   1994.54103516153     
 soft         electrons  0.000000000000000E+000
 total        electrons   1994.54103516153     
 augmentation electrons   1937.02387528953     
 soft         electrons  0.000000000000000E+000
 total        electrons   1937.02387528953     
 augmentation electrons   54.8643955887364     
 soft         electrons   1757.04820805460     
 total        electrons   1811.91260364334     
 augmentation electrons   37.6273403520330     
 soft         electrons   1757.04820805460     
 total        electrons   59.9185937544912     
 translations:           0           1           0
   5 F= -.36420081E+04 E0= -.36420081E+04  d E =-.857419E-01  mag=    60.0000
 curvature:  -0.33 expect dE=-0.349E-01 dE for cont linesearch -0.185E-03
 ZBRENT: interpolating
 opt :   0.3366  next Energy= -3642.008334 (dE=-0.859E-01)
 bond charge predicted
       N       E                     dE             d eps       ncg     rms          rms(c)
DAV:   1    -0.360407678700E+04   -0.14937E-03   -0.20178E-02  5760   0.112E-01    0.619E-02
DAV:   2    -0.360407685340E+04   -0.66405E-04   -0.82646E-04  6016   0.214E-02    0.357E-02
DAV:   3    -0.360407684952E+04    0.38783E-05   -0.22821E-05  6400   0.447E-03    0.224E-02
DAV:   4    -0.360407684817E+04    0.13502E-05   -0.28774E-06  6144   0.143E-03    0.147E-02
DAV:   5    -0.360407684777E+04    0.40745E-06   -0.42556E-06  5632   0.196E-03
 augmentation electrons   1811.91208592724     
 soft         electrons  0.000000000000000E+000
 total        electrons   1811.91208592724     
 augmentation electrons -8.136732731380963E-002
 soft         electrons  0.000000000000000E+000
 total        electrons -8.136732731380963E-002
 augmentation electrons   1993.29137971250     
 soft         electrons  0.000000000000000E+000
 total        electrons   1993.29137971250     
 augmentation electrons   1935.77421984050     
 soft         electrons  0.000000000000000E+000
 total        electrons   1935.77421984050     
 augmentation electrons   54.8634205566772     
 soft         electrons   1757.04858788982     
 total        electrons   1811.91200844650     
 augmentation electrons   37.6259219805245     
 soft         electrons   1757.04858788982     
 total        electrons   59.9185972207090     
 translations:           0           1           0
   6 F= -.36420080E+04 E0= -.36420080E+04  d E =-.856029E-01  mag=    60.0000
 curvature:  -0.33 expect dE=-0.302E-01 dE for cont linesearch -0.273E-05
 trial: gam= 0.34103 g(F)=  0.912E-01 g(S)=  0.000E+00 ort = 0.276E-02 (trialstep = 0.440E+00)
 search vector abs. value=  0.201E+00
 bond charge predicted
       N       E                     dE             d eps       ncg     rms          rms(c)
DAV:   1    -0.360408675844E+04   -0.99103E-02   -0.30262E+00  5504   0.144E+00    0.770E-01
DAV:   2    -0.360409928017E+04   -0.12522E-01   -0.14469E-01  6144   0.274E-01    0.462E-01
DAV:   3    -0.360409888256E+04    0.39761E-03   -0.39336E-03  6272   0.559E-02    0.255E-01
DAV:   4    -0.360409866476E+04    0.21780E-03   -0.41600E-04  6528   0.171E-02    0.171E-01
DAV:   5    -0.360409844976E+04    0.21500E-03   -0.43358E-04  6528   0.195E-02    0.715E-02
DAV:   6    -0.360409845026E+04   -0.50159E-06   -0.17959E-04  6272   0.109E-02    0.137E-02
DAV:   7    -0.360409844917E+04    0.10861E-05   -0.15330E-05  6272   0.342E-03    0.839E-03
DAV:   8    -0.360409844827E+04    0.89992E-06   -0.17623E-06  5248   0.145E-03
 augmentation electrons   1811.91062799737     
 soft         electrons  0.000000000000000E+000
 total        electrons   1811.91062799737     
 augmentation electrons -8.163747133129959E-002
 soft         electrons  0.000000000000000E+000
 total        electrons -8.163747133129959E-002
 augmentation electrons   2016.31610550129     
 soft         electrons  0.000000000000000E+000
 total        electrons   2016.31610550129     
 augmentation electrons   1958.79894562929     
 soft         electrons  0.000000000000000E+000
 total        electrons   1958.79894562929     
 augmentation electrons   54.8598921995433     
 soft         electrons   1757.05065836535     
 total        electrons   1811.91055056489     
 augmentation electrons   37.6413024701616     
 soft         electrons   1757.05065836535     
 total        electrons   59.9183276224483     
 translations:           0           1           0
   7 F= -.36420335E+04 E0= -.36420335E+04  d E =-.254472E-01  mag=    60.0000
 trial-energy change:   -0.025447  1 .order   -0.019502   -0.040588    0.001583
 step:   0.4314(harm=  0.4239)  dis= 0.00914  next Energy= -3642.033472 (dE=-0.255E-01)
 bond charge predicted
       N       E                     dE             d eps       ncg     rms          rms(c)
DAV:   1    -0.360409842204E+04    0.27130E-04   -0.12529E-03  5888   0.298E-02    0.163E-02
DAV:   2    -0.360409842820E+04   -0.61549E-05   -0.67746E-05  6016   0.626E-03    0.103E-02
DAV:   3    -0.360409842825E+04   -0.56374E-07   -0.17805E-06  5504   0.127E-03
 augmentation electrons   1811.91075980078     
 soft         electrons  0.000000000000000E+000
 total        electrons   1811.91075980078     
 augmentation electrons -8.163438559251121E-002
 soft         electrons  0.000000000000000E+000
 total        electrons -8.163438559251121E-002
 augmentation electrons   2015.77313748030     
 soft         electrons  0.000000000000000E+000
 total        electrons   2015.77313748030     
 augmentation electrons   1958.25597760830     
 soft         electrons  0.000000000000000E+000
 total        electrons   1958.25597760830     
 augmentation electrons   54.8600388399616     
 soft         electrons   1757.05064351180     
 total        electrons   1811.91068235176     
 augmentation electrons   37.6409178947856     
 soft         electrons   1757.05064351180     
 total        electrons   59.9183306965147     
 translations:           0           1           0
   8 F= -.36420333E+04 E0= -.36420333E+04  d E =-.253160E-01  mag=    60.0000
 curvature:  -0.37 expect dE=-0.227E-01 dE for cont linesearch -0.643E-05
 trial: gam= 0.62933 g(F)=  0.618E-01 g(S)=  0.000E+00 ort =-0.188E-02 (trialstep = 0.439E+00)
 search vector abs. value=  0.139E+00
 bond charge predicted
       N       E                     dE             d eps       ncg     rms          rms(c)
DAV:   1    -0.360410832294E+04   -0.98947E-02   -0.20598E+00  5632   0.121E+00    0.640E-01
DAV:   2    -0.360411883870E+04   -0.10516E-01   -0.11354E-01  6016   0.220E-01    0.358E-01
DAV:   3    -0.360411873694E+04    0.10176E-03   -0.28669E-03  6144   0.437E-02    0.193E-01
DAV:   4    -0.360411860171E+04    0.13523E-03   -0.23563E-04  6656   0.121E-02    0.132E-01
DAV:   5    -0.360411845133E+04    0.15037E-03   -0.30290E-04  6400   0.174E-02    0.574E-02
DAV:   6    -0.360411845353E+04   -0.21983E-05   -0.12469E-04  6528   0.902E-03    0.114E-02
DAV:   7    -0.360411845310E+04    0.43804E-06   -0.10441E-05  6016   0.290E-03    0.592E-03
DAV:   8    -0.360411845248E+04    0.61245E-06   -0.10118E-06  5376   0.124E-03
 augmentation electrons   1811.90886249871     
 soft         electrons  0.000000000000000E+000
 total        electrons   1811.90886249871     
 augmentation electrons -8.198806341923268E-002
 soft         electrons  0.000000000000000E+000
 total        electrons -8.198806341923268E-002
 augmentation electrons   2044.92831579843     
 soft         electrons  0.000000000000000E+000
 total        electrons   2044.92831579843     
 augmentation electrons   1987.41115592643     
 soft         electrons  0.000000000000000E+000
 total        electrons   1987.41115592643     
 augmentation electrons   54.8571735803098     
 soft         electrons   1757.05161314015     
 total        electrons   1811.90878672046     
 augmentation electrons   37.6507024633614     
 soft         electrons   1757.05161314015     
 total        electrons   59.9179776351094     
 translations:           0           1           0
   9 F= -.36420541E+04 E0= -.36420541E+04  d E =-.208000E-01  mag=    60.0000
 trial-energy change:   -0.020800  1 .order   -0.018440   -0.026591   -0.010288
 step:   0.5689(harm=  0.7155)  dis= 0.01097  next Energy= -3642.055713 (dE=-0.224E-01)
 bond charge predicted
       N       E                     dE             d eps       ncg     rms          rms(c)
DAV:   1    -0.360412031661E+04   -0.18635E-02   -0.18080E-01  5632   0.359E-01    0.189E-01
DAV:   2    -0.360412124191E+04   -0.92530E-03   -0.99984E-03  6144   0.653E-02    0.105E-01
DAV:   3    -0.360412123310E+04    0.88157E-05   -0.25198E-04  6144   0.130E-02    0.574E-02
DAV:   4    -0.360412122138E+04    0.11717E-04   -0.19921E-05  6656   0.349E-03    0.395E-02
DAV:   5    -0.360412120742E+04    0.13963E-04   -0.26388E-05  6400   0.503E-03    0.170E-02
DAV:   6    -0.360412120721E+04    0.20504E-06   -0.10256E-05  6400   0.251E-03    0.332E-03
DAV:   7    -0.360412120721E+04    0.27503E-08   -0.64990E-07  4352   0.749E-04
 augmentation electrons   1811.90903268611     
 soft         electrons  0.000000000000000E+000
 total        electrons   1811.90903268611     
 augmentation electrons -8.202007523521482E-002
 soft         electrons  0.000000000000000E+000
 total        electrons -8.202007523521482E-002
 augmentation electrons   2055.21897611060     
 soft         electrons  0.000000000000000E+000
 total        electrons   2055.21897611060     
 augmentation electrons   1997.70181623860     
 soft         electrons  0.000000000000000E+000
 total        electrons   1997.70181623860     
 augmentation electrons   54.8570166027479     
 soft         electrons   1757.05194101174     
 total        electrons   1811.90895761449     
 augmentation electrons   37.6536162644353     
 soft         electrons   1757.05194101174     
 total        electrons   59.9179458144502     
 translations:           0           1           0
  10 F= -.36420571E+04 E0= -.36420571E+04  d E =-.237474E-01  mag=    60.0000
 curvature:  -0.59 expect dE=-0.357E-01 dE for cont linesearch -0.636E-03
 ZBRENT: increasing intervall
 opt :   0.8292  next Energy= -3642.057341 (dE=-0.240E-01)
 bond charge predicted
       N       E                     dE             d eps       ncg     rms          rms(c)
DAV:   1    -0.360411898923E+04    0.22180E-02   -0.72415E-01  5632   0.718E-01    0.379E-01
DAV:   2    -0.360412269216E+04   -0.37029E-02   -0.39963E-02  6016   0.131E-01    0.210E-01
DAV:   3    -0.360412265779E+04    0.34368E-04   -0.10095E-03  6144   0.260E-02    0.114E-01
DAV:   4    -0.360412261107E+04    0.46724E-04   -0.81474E-05  6656   0.712E-03    0.784E-02
DAV:   5    -0.360412255755E+04    0.53515E-04   -0.10528E-04  6400   0.102E-02    0.340E-02
DAV:   6    -0.360412255783E+04   -0.27989E-06   -0.43038E-05  6528   0.526E-03    0.679E-03
DAV:   7    -0.360412255773E+04    0.10291E-06   -0.33261E-06  5120   0.166E-03
 augmentation electrons   1811.91125532151     
 soft         electrons  0.000000000000000E+000
 total        electrons   1811.91125532151     
 augmentation electrons -8.229827481014797E-002
 soft         electrons  0.000000000000000E+000
 total        electrons -8.229827481014797E-002
 augmentation electrons   2078.38719040252     
 soft         electrons  0.000000000000000E+000
 total        electrons   2078.38719040252     
 augmentation electrons   2020.87003053053     
 soft         electrons  0.000000000000000E+000
 total        electrons   2020.87003053053     
 augmentation electrons   54.8586082673189     
 soft         electrons   1757.05257367560     
 total        electrons   1811.91118194291     
 augmentation electrons   37.6592581319103     
 soft         electrons   1757.05257367560     
 total        electrons   59.9176680046840     
 translations:           0           1           0
  11 F= -.36420588E+04 E0= -.36420588E+04  d E =-.254629E-01  mag=    60.0000
 curvature:  -0.25 expect dE=-0.308E-01 dE for cont linesearch -0.186E-03
 trial: gam= 2.15855 g(F)=  0.124E+00 g(S)=  0.000E+00 ort =-0.102E-01 (trialstep = 0.987E-01)
 search vector abs. value=  0.727E+00
 bond charge predicted
       N       E                     dE             d eps       ncg     rms          rms(c)
DAV:   1    -0.360412906521E+04   -0.65074E-02   -0.50694E-01  5632   0.540E-01    0.318E-01
DAV:   2    -0.360413209481E+04   -0.30296E-02   -0.30571E-02  5888   0.100E-01    0.163E-01
DAV:   3    -0.360413211921E+04   -0.24400E-04   -0.70048E-04  6144   0.193E-02    0.884E-02
DAV:   4    -0.360413210042E+04    0.18788E-04   -0.45714E-05  6400   0.463E-03    0.632E-02
DAV:   5    -0.360413207316E+04    0.27268E-04   -0.44878E-05  6400   0.598E-03    0.340E-02
DAV:   6    -0.360413207092E+04    0.22349E-05   -0.29207E-05  6656   0.416E-03    0.759E-03
DAV:   7    -0.360413207108E+04   -0.15905E-06   -0.41350E-06  5376   0.171E-03
 augmentation electrons   1811.92103345855     
 soft         electrons  0.000000000000000E+000
 total        electrons   1811.92103345855     
 augmentation electrons -8.234324693525527E-002
 soft         electrons  0.000000000000000E+000
 total        electrons -8.234324693525527E-002
 augmentation electrons   2101.39274503284     
 soft         electrons  0.000000000000000E+000
 total        electrons   2101.39274503284     
 augmentation electrons   2043.87558516084     
 soft         electrons  0.000000000000000E+000
 total        electrons   2043.87558516084     
 augmentation electrons   54.8681262038462     
 soft         electrons   1757.05283589770     
 total        electrons   1811.92096210154     
 augmentation electrons   37.6635560012584     
 soft         electrons   1757.05283589770     
 total        electrons   59.9176234057306     
 translations:           0           1           0
  12 F= -.36420683E+04 E0= -.36420683E+04  d E =-.956166E-02  mag=    60.0000
 ZBRENT: can't locate minimum, use default step
 trial-energy change:   -0.009562  1 .order   -0.009186   -0.010045   -0.008327
 step:   0.3950(harm=  0.5775)  dis= 0.01816  next Energy= -3642.088163 (dE=-0.294E-01)
 bond charge predicted
       N       E                     dE             d eps       ncg     rms          rms(c)
DAV:   1    -0.360412239601E+04    0.96749E-02   -0.45605E+00  5504   0.162E+00    0.950E-01
DAV:   2    -0.360414967253E+04   -0.27277E-01   -0.27544E-01  5888   0.302E-01    0.493E-01
DAV:   3    -0.360414991147E+04   -0.23894E-03   -0.63426E-03  6144   0.578E-02    0.265E-01
DAV:   4    -0.360414974396E+04    0.16751E-03   -0.41254E-04  6400   0.140E-02    0.189E-01
DAV:   5    -0.360414950879E+04    0.23517E-03   -0.39589E-04  6400   0.180E-02    0.102E-01
DAV:   6    -0.360414949346E+04    0.15336E-04   -0.26468E-04  6656   0.128E-02    0.232E-02
DAV:   7    -0.360414949488E+04   -0.14252E-05   -0.40224E-05  6016   0.532E-03    0.892E-03
DAV:   8    -0.360414949352E+04    0.13595E-05   -0.22075E-06  5760   0.181E-03    0.450E-03
DAV:   9    -0.360414949299E+04    0.52719E-06   -0.90276E-07  5120   0.131E-03
 augmentation electrons   1811.97822726495     
 soft         electrons  0.000000000000000E+000
 total        electrons   1811.97822726495     
 augmentation electrons -8.132898272349612E-002
 soft         electrons  0.000000000000000E+000
 total        electrons -8.132898272349612E-002
 augmentation electrons   2180.01501312157     
 soft         electrons  0.000000000000000E+000
 total        electrons   2180.01501312157     
 augmentation electrons   2122.49785324957     
 soft         electrons  0.000000000000000E+000
 total        electrons   2122.49785324957     
 augmentation electrons   54.9245572730250     
 soft         electrons   1757.05360464647     
 total        electrons   1811.97816191949     
 augmentation electrons   37.6775451573723     
 soft         electrons   1757.05360464647     
 total        electrons   59.9186387738294     
 translations:           0           1           0
  13 F= -.36420858E+04 E0= -.36420858E+04  d E =-.270102E-01  mag=    60.0000
 curvature:  -1.76 expect dE=-0.195E+00 dE for cont linesearch -0.209E-02
 ZBRENT: increasing intervall
 opt :   0.9874  next Energy= -3642.070641 (dE=-0.119E-01)
 bond charge predicted
       N       E                     dE             d eps       ncg     rms          rms(c)
DAV:   1    -0.360402793458E+04    0.12156E+00   -0.18219E+01  5632   0.325E+00    0.189E+00
DAV:   2    -0.360413642152E+04   -0.10849E+00   -0.10955E+00  5888   0.607E-01    0.988E-01
DAV:   3    -0.360413750230E+04   -0.10808E-02   -0.25501E-02  6144   0.115E-01    0.528E-01
DAV:   4    -0.360413684562E+04    0.65667E-03   -0.16276E-03  6400   0.279E-02    0.378E-01
DAV:   5    -0.360413593045E+04    0.91517E-03   -0.15449E-03  6272   0.356E-02    0.205E-01
DAV:   6    -0.360413587295E+04    0.57497E-04   -0.10306E-03  6656   0.256E-02    0.477E-02
DAV:   7    -0.360413587954E+04   -0.65835E-05   -0.15524E-04  6144   0.105E-02    0.180E-02
DAV:   8    -0.360413587422E+04    0.53132E-05   -0.86937E-06  6656   0.367E-03    0.917E-03
DAV:   9    -0.360413587171E+04    0.25159E-05   -0.35699E-06  6272   0.267E-03    0.425E-03
DAV:  10    -0.360413587054E+04    0.11699E-05   -0.19705E-06  5888   0.201E-03    0.263E-03
DAV:  11    -0.360413587008E+04    0.45919E-06   -0.12017E-06  5248   0.144E-03
 augmentation electrons   1812.23694224902     
 soft         electrons  0.000000000000000E+000
 total        electrons   1812.23694224902     
 augmentation electrons -7.808387675348526E-002
 soft         electrons  0.000000000000000E+000
 total        electrons -7.808387675348526E-002
 augmentation electrons   2387.14152918172     
 soft         electrons  0.000000000000000E+000
 total        electrons   2387.14152918172     
 augmentation electrons   2329.62436930972     
 soft         electrons  0.000000000000000E+000
 total        electrons   2329.62436930972     
 augmentation electrons   55.1816731847014     
 soft         electrons   1757.05520719881     
 total        electrons   1812.23688038351     
 augmentation electrons   37.7064342184766     
 soft         electrons   1757.05520719881     
 total        electrons   59.9218856779462     
 translations:           0           1           0
  14 F= -.36420717E+04 E0= -.36420717E+04  d E =-.129426E-01  mag=    60.0000
 curvature:  12.77 expect dE= 0.436E+01 dE for cont linesearch  0.101E+00
 ZBRENT: bracketing found
 ZBRENT: interpolating
 opt :   0.5605  next Energy= -3642.088229 (dE=-0.294E-01)
 bond charge predicted
       N       E                     dE             d eps       ncg     rms          rms(c)
DAV:   1    -0.360409535939E+04    0.40511E-01   -0.94624E+00  5504   0.236E+00    0.140E+00
DAV:   2    -0.360415205940E+04   -0.56700E-01   -0.57273E-01  5888   0.443E-01    0.706E-01
DAV:   3    -0.360415259017E+04   -0.53077E-03   -0.13227E-02  6144   0.849E-02    0.390E-01
DAV:   4    -0.360415225310E+04    0.33707E-03   -0.87501E-04  6528   0.206E-02    0.278E-01
DAV:   5    -0.360415176715E+04    0.48596E-03   -0.79788E-04  6400   0.262E-02    0.154E-01
DAV:   6    -0.360415173507E+04    0.32075E-04   -0.59696E-04  6528   0.199E-02    0.358E-02
DAV:   7    -0.360415173884E+04   -0.37713E-05   -0.10550E-04  6144   0.849E-03    0.134E-02
DAV:   8    -0.360415173569E+04    0.31502E-05   -0.53275E-06  6656   0.280E-03    0.627E-03
DAV:   9    -0.360415173346E+04    0.22329E-05   -0.19660E-06  5888   0.214E-03    0.307E-03
DAV:  10    -0.360415173268E+04    0.77995E-06   -0.14072E-06  5376   0.147E-03
 augmentation electrons   1812.02911992051     
 soft         electrons  0.000000000000000E+000
 total        electrons   1812.02911992051     
 augmentation electrons -8.088563310624750E-002
 soft         electrons  0.000000000000000E+000
 total        electrons -8.088563310624750E-002
 augmentation electrons   2228.34336219858     
 soft         electrons  0.000000000000000E+000
 total        electrons   2228.34336219858     
 augmentation electrons   2170.82620232658     
 soft         electrons  0.000000000000000E+000
 total        electrons   2170.82620232658     
 augmentation electrons   54.9749837594815     
 soft         electrons   1757.05407326230     
 total        electrons   1812.02905702178     
 augmentation electrons   37.6851598887160     
 soft         electrons   1757.05407326230     
 total        electrons   59.9190826954525     
 translations:           0           1           0
  15 F= -.36420880E+04 E0= -.36420880E+04  d E =-.291724E-01  mag=    60.0000
 curvature:  -0.31 expect dE=-0.454E-01 dE for cont linesearch -0.514E-04
 trial: gam= 0.64949 g(F)=  0.148E+00 g(S)=  0.000E+00 ort =-0.110E-01 (trialstep = 0.191E+00)
 search vector abs. value=  0.440E+00
 bond charge predicted
       N       E                     dE             d eps       ncg     rms          rms(c)
DAV:   1    -0.360416665280E+04   -0.14919E-01   -0.12979E+00  5376   0.974E-01    0.429E-01
DAV:   2    -0.360417221387E+04   -0.55611E-02   -0.63263E-02  5888   0.169E-01    0.219E-01
DAV:   3    -0.360417205683E+04    0.15704E-03   -0.15371E-03  6144   0.328E-02    0.133E-01
DAV:   4    -0.360417194797E+04    0.10886E-03   -0.16996E-04  6400   0.115E-02    0.938E-02
DAV:   5    -0.360417186621E+04    0.81755E-04   -0.19207E-04  6144   0.142E-02    0.313E-02
DAV:   6    -0.360417187049E+04   -0.42799E-05   -0.61911E-05  6528   0.632E-03    0.725E-03
DAV:   7    -0.360417186978E+04    0.71274E-06   -0.32703E-06  6144   0.181E-03
 augmentation electrons   1812.07098810135     
 soft         electrons  0.000000000000000E+000
 total        electrons   1812.07098810135     
 augmentation electrons -8.002433965955957E-002
 soft         electrons  0.000000000000000E+000
 total        electrons -8.002433965955957E-002
 augmentation electrons   2257.07774170890     
 soft         electrons  0.000000000000000E+000
 total        electrons   2257.07774170890     
 augmentation electrons   2199.56058183690     
 soft         electrons  0.000000000000000E+000
 total        electrons   2199.56058183690     
 augmentation electrons   55.0172560804782     
 soft         electrons   1757.05367169355     
 total        electrons   1812.07092777403     
 augmentation electrons   37.6889963848367     
 soft         electrons   1757.05367169355     
 total        electrons   59.9199444381042     
 translations:           0           1           0
  16 F= -.36421075E+04 E0= -.36421075E+04  d E =-.194986E-01  mag=    60.0000
 trial-energy change:   -0.019499  1 .order   -0.019422   -0.026841   -0.012002
 step:   0.3376(harm=  0.3456)  dis= 0.01020  next Energy= -3642.112094 (dE=-0.241E-01)
 bond charge predicted
       N       E                     dE             d eps       ncg     rms          rms(c)
DAV:   1    -0.360417441017E+04   -0.25397E-02   -0.76186E-01  5248   0.747E-01    0.327E-01
DAV:   2    -0.360417769146E+04   -0.32813E-02   -0.37291E-02  5760   0.129E-01    0.167E-01
DAV:   3    -0.360417760104E+04    0.90426E-04   -0.89952E-04  6272   0.251E-02    0.102E-01
DAV:   4    -0.360417753700E+04    0.64039E-04   -0.10072E-04  6400   0.879E-03    0.718E-02
DAV:   5    -0.360417749195E+04    0.45042E-04   -0.11197E-04  6144   0.106E-02    0.235E-02
DAV:   6    -0.360417749476E+04   -0.28085E-05   -0.33535E-05  6528   0.454E-03    0.536E-03
DAV:   7    -0.360417749447E+04    0.29293E-06   -0.14061E-06  5248   0.121E-03
 augmentation electrons   1812.10749653566     
 soft         electrons  0.000000000000000E+000
 total        electrons   1812.10749653566     
 augmentation electrons -7.917189411741482E-002
 soft         electrons  0.000000000000000E+000
 total        electrons -7.917189411741482E-002
 augmentation electrons   2282.84932439063     
 soft         electrons  0.000000000000000E+000
 total        electrons   2282.84932439063     
 augmentation electrons   2225.33216451863     
 soft         electrons  0.000000000000000E+000
 total        electrons   2225.33216451863     
 augmentation electrons   55.0541388869337     
 soft         electrons   1757.05329882034     
 total        electrons   1812.10743770727     
 augmentation electrons   37.6921334917056     
 soft         electrons   1757.05329882034     
 total        electrons   59.9207972053451     
 translations:           0           1           0
  17 F= -.36421126E+04 E0= -.36421126E+04  d E =-.246101E-01  mag=    60.0000
 curvature:  -0.54 expect dE=-0.265E-01 dE for cont linesearch -0.729E-04
 trial: gam= 0.31331 g(F)=  0.491E-01 g(S)=  0.000E+00 ort = 0.771E-02 (trialstep = 0.220E+00)
 search vector abs. value=  0.971E-01
 bond charge predicted
       N       E                     dE             d eps       ncg     rms          rms(c)
DAV:   1    -0.360418743126E+04   -0.99365E-02   -0.34997E-01  5504   0.469E-01    0.214E-01
DAV:   2    -0.360418875754E+04   -0.13263E-02   -0.14506E-02  6144   0.815E-02    0.110E-01
DAV:   3    -0.360418872753E+04    0.30017E-04   -0.27783E-04  6656   0.154E-02    0.702E-02
DAV:   4    -0.360418871360E+04    0.13926E-04   -0.26408E-05  6528   0.438E-03    0.507E-02
DAV:   5    -0.360418869688E+04    0.16720E-04   -0.49736E-05  6400   0.650E-03    0.212E-02
DAV:   6    -0.360418869869E+04   -0.18069E-05   -0.16535E-05  6528   0.323E-03    0.402E-03
DAV:   7    -0.360418869852E+04    0.16124E-06   -0.10017E-06  4480   0.927E-04
 augmentation electrons   1812.10777308702     
 soft         electrons  0.000000000000000E+000
 total        electrons   1812.10777308702     
 augmentation electrons -7.906661997432918E-002
 soft         electrons  0.000000000000000E+000
 total        electrons -7.906661997432918E-002
 augmentation electrons   2278.92508782990     
 soft         electrons  0.000000000000000E+000
 total        electrons   2278.92508782990     
 augmentation electrons   2221.40792795790     
 soft         electrons  0.000000000000000E+000
 total        electrons   2221.40792795790     
 augmentation electrons   55.0558352245358     
 soft         electrons   1757.05188027619     
 total        electrons   1812.10771550072     
 augmentation electrons   37.6903111243343     
 soft         electrons   1757.05188027619     
 total        electrons   59.9209026894092     
 translations:           0           1           0
  18 F= -.36421224E+04 E0= -.36421224E+04  d E =-.979355E-02  mag=    60.0000
 ZBRENT: can't locate minimum, use default step
 trial-energy change:   -0.009794  1 .order   -0.010184   -0.011346   -0.009022
 step:   0.8815(harm=  1.0757)  dis= 0.00928  next Energy= -3642.140260 (dE=-0.277E-01)
 bond charge predicted
       N       E                     dE             d eps       ncg     rms          rms(c)
DAV:   1    -0.360419706581E+04   -0.83671E-02   -0.31502E+00  5248   0.141E+00    0.647E-01
DAV:   2    -0.360420895893E+04   -0.11893E-01   -0.13045E-01  6144   0.245E-01    0.332E-01
DAV:   3    -0.360420867715E+04    0.28178E-03   -0.25041E-03  6656   0.466E-02    0.211E-01
DAV:   4    -0.360420854905E+04    0.12809E-03   -0.24079E-04  6528   0.133E-02    0.152E-01
DAV:   5    -0.360420838624E+04    0.16281E-03   -0.44645E-04  6400   0.197E-02    0.641E-02
DAV:   6    -0.360420839884E+04   -0.12595E-04   -0.15162E-04  6528   0.990E-03    0.123E-02
DAV:   7    -0.360420839752E+04    0.13165E-05   -0.10449E-05  6144   0.293E-03    0.658E-03
DAV:   8    -0.360420839714E+04    0.38004E-06   -0.21485E-06  4864   0.139E-03
 augmentation electrons   1812.09681810594     
 soft         electrons  0.000000000000000E+000
 total        electrons   1812.09681810594     
 augmentation electrons -7.909978203009220E-002
 soft         electrons  0.000000000000000E+000
 total        electrons -7.909978203009220E-002
 augmentation electrons   2271.59403576401     
 soft         electrons  0.000000000000000E+000
 total        electrons   2271.59403576401     
 augmentation electrons   2214.07687589201     
 soft         electrons  0.000000000000000E+000
 total        electrons   2214.07687589201     
 augmentation electrons   55.0489664185061     
 soft         electrons   1757.04779698391     
 total        electrons   1812.09676340242     
 augmentation electrons   37.6844479579898     
 soft         electrons   1757.04779698391     
 total        electrons   59.9208701492671     
 translations:           0           1           0
  19 F= -.36421378E+04 E0= -.36421378E+04  d E =-.252688E-01  mag=    60.0000
 curvature:  -0.96 expect dE=-0.745E-01 dE for cont linesearch -0.800E-03
 trial: gam= 1.50977 g(F)=  0.774E-01 g(S)=  0.000E+00 ort = 0.899E-02 (trialstep = 0.105E+00)
 search vector abs. value=  0.326E+00
 bond charge predicted
       N       E                     dE             d eps       ncg     rms          rms(c)
DAV:   1    -0.360421725093E+04   -0.88534E-02   -0.24969E-01  5504   0.351E-01    0.197E-01
DAV:   2    -0.360421819405E+04   -0.94312E-03   -0.10543E-02  6144   0.652E-02    0.105E-01
DAV:   3    -0.360421817369E+04    0.20363E-04   -0.20488E-04  6400   0.128E-02    0.641E-02
DAV:   4    -0.360421816398E+04    0.97036E-05   -0.17012E-05  6656   0.323E-03    0.456E-02
DAV:   5    -0.360421815154E+04    0.12447E-04   -0.39943E-05  6400   0.549E-03    0.209E-02
DAV:   6    -0.360421815318E+04   -0.16469E-05   -0.12441E-05  6400   0.271E-03    0.357E-03
DAV:   7    -0.360421815315E+04    0.36103E-07   -0.76352E-07  4352   0.798E-04
 augmentation electrons   1812.08630932657     
 soft         electrons  0.000000000000000E+000
 total        electrons   1812.08630932657     
 augmentation electrons -7.905466444082523E-002
 soft         electrons  0.000000000000000E+000
 total        electrons -7.905466444082523E-002
 augmentation electrons   2264.79929084778     
 soft         electrons  0.000000000000000E+000
 total        electrons   2264.79929084778     
 augmentation electrons   2207.28213097578     
 soft         electrons  0.000000000000000E+000
 total        electrons   2207.28213097578     
 augmentation electrons   55.0394849787298     
 soft         electrons   1757.04677014456     
 total        electrons   1812.08625512329     
 augmentation electrons   37.6819005547190     
 soft         electrons   1757.04677014456     
 total        electrons   59.9209154584700     
 translations:           0           1           0
  20 F= -.36421461E+04 E0= -.36421461E+04  d E =-.825319E-02  mag=    60.0000
 ZBRENT: can't locate minimum, use default step
 trial-energy change:   -0.008253  1 .order   -0.008920   -0.009559   -0.008281
 step:   0.4202(harm=  0.7854)  dis= 0.00914  next Energy= -3642.173569 (dE=-0.357E-01)
 bond charge predicted
       N       E                     dE             d eps       ncg     rms          rms(c)
DAV:   1    -0.360423295911E+04   -0.14806E-01   -0.22525E+00  5248   0.105E+00    0.596E-01
DAV:   2    -0.360424141169E+04   -0.84526E-02   -0.94812E-02  6144   0.196E-01    0.314E-01
DAV:   3    -0.360424120629E+04    0.20541E-03   -0.18504E-03  6400   0.387E-02    0.194E-01
DAV:   4    -0.360424111262E+04    0.93662E-04   -0.15740E-04  6656   0.991E-03    0.137E-01
DAV:   5    -0.360424097967E+04    0.13295E-03   -0.36218E-04  6400   0.167E-02    0.634E-02
DAV:   6    -0.360424098832E+04   -0.86475E-05   -0.11659E-04  6400   0.848E-03    0.110E-02
DAV:   7    -0.360424098781E+04    0.50856E-06   -0.87809E-06  6272   0.266E-03
 augmentation electrons   1812.05115428724     
 soft         electrons  0.000000000000000E+000
 total        electrons   1812.05115428724     
 augmentation electrons -7.886789597670620E-002
 soft         electrons  0.000000000000000E+000
 total        electrons -7.886789597670620E-002
 augmentation electrons   2245.74520450785     
 soft         electrons  0.000000000000000E+000
 total        electrons   2245.74520450785     
 augmentation electrons   2188.22804463585     
 soft         electrons  0.000000000000000E+000
 total        electrons   2188.22804463585     
 augmentation electrons   55.0072410641716     
 soft         electrons   1757.04385985758     
 total        electrons   1812.05110092175     
 augmentation electrons   37.6741919226942     
 soft         electrons   1757.04385985758     
 total        electrons   59.9211028066233     
 translations:           0           1           0
  21 F= -.36421644E+04 E0= -.36421644E+04  d E =-.265514E-01  mag=    60.0000
 curvature:  -1.00 expect dE=-0.331E-01 dE for cont linesearch -0.672E-02
 ZBRENT: increasing intervall
 opt :   1.0506  next Energy= -3642.173688 (dE=-0.358E-01)
 bond charge predicted
       N       E                     dE             d eps       ncg     rms          rms(c)
DAV:   1    -0.360422257792E+04    0.18410E-01   -0.90076E+00  5248   0.211E+00    0.121E+00
DAV:   2    -0.360425640633E+04   -0.33828E-01   -0.37973E-01  6144   0.392E-01    0.639E-01
DAV:   3    -0.360425557830E+04    0.82803E-03   -0.74511E-03  6400   0.778E-02    0.392E-01
DAV:   4    -0.360425519805E+04    0.38024E-03   -0.63579E-04  6656   0.198E-02    0.278E-01
DAV:   5    -0.360425465200E+04    0.54606E-03   -0.14381E-03  6400   0.332E-02    0.129E-01
DAV:   6    -0.360425468101E+04   -0.29010E-04   -0.46942E-04  6400   0.169E-02    0.224E-02
DAV:   7    -0.360425467896E+04    0.20463E-05   -0.36440E-05  6400   0.537E-03    0.111E-02
DAV:   8    -0.360425467833E+04    0.63486E-06   -0.54332E-06  6016   0.220E-03
 augmentation electrons   1811.98277594260     
 soft         electrons  0.000000000000000E+000
 total        electrons   1811.98277594260     
 augmentation electrons -7.872818705506830E-002
 soft         electrons  0.000000000000000E+000
 total        electrons -7.872818705506830E-002
 augmentation electrons   2213.05863488289     
 soft         electrons  0.000000000000000E+000
 total        electrons   2213.05863488289     
 augmentation electrons   2155.54147501089     
 soft         electrons  0.000000000000000E+000
 total        electrons   2155.54147501089     
 augmentation electrons   54.9444916869303     
 soft         electrons   1757.03822820369     
 total        electrons   1811.98271989062     
 augmentation electrons   37.6583681800031     
 soft         electrons   1757.03822820369     
 total        electrons   59.9212436799221     
 translations:           0           1           0
  22 F= -.36421689E+04 E0= -.36421689E+04  d E =-.311099E-01  mag=    60.0000
 curvature:  -1.38 expect dE=-0.206E+00 dE for cont linesearch -0.146E-02
 ZBRENT: bracketing found
 ZBRENT: interpolating
 opt :   0.8715  next Energy= -3642.170611 (dE=-0.328E-01)
 bond charge predicted
       N       E                     dE             d eps       ncg     rms          rms(c)
DAV:   1    -0.360425237006E+04    0.23089E-02   -0.72809E-01  5248   0.598E-01    0.335E-01
DAV:   2    -0.360425509533E+04   -0.27253E-02   -0.30685E-02  6144   0.111E-01    0.176E-01
DAV:   3    -0.360425501867E+04    0.76656E-04   -0.58902E-04  6400   0.218E-02    0.108E-01
DAV:   4    -0.360425498527E+04    0.33403E-04   -0.52644E-05  6656   0.578E-03    0.766E-02
DAV:   5    -0.360425493333E+04    0.51934E-04   -0.11956E-04  6400   0.979E-03    0.350E-02
DAV:   6    -0.360425493336E+04   -0.24549E-07   -0.37813E-05  6528   0.499E-03    0.607E-03
DAV:   7    -0.360425493311E+04    0.24521E-06   -0.30909E-06  6272   0.161E-03
 augmentation electrons   1812.00079554770     
 soft         electrons  0.000000000000000E+000
 total        electrons   1812.00079554770     
 augmentation electrons -7.871017392599686E-002
 soft         electrons  0.000000000000000E+000
 total        electrons -7.871017392599686E-002
 augmentation electrons   2221.61150514280     
 soft         electrons  0.000000000000000E+000
 total        electrons   2221.61150514280     
 augmentation electrons   2164.09434527080     
 soft         electrons  0.000000000000000E+000
 total        electrons   2164.09434527080     
 augmentation electrons   54.9609070093791     
 soft         electrons   1757.03983392841     
 total        electrons   1812.00074093778     
 augmentation electrons   37.6629954810132     
 soft         electrons   1757.03983392841     
 total        electrons   59.9212613628286     
 translations:           0           1           0
  23 F= -.36421718E+04 E0= -.36421718E+04  d E =-.339708E-01  mag=    60.0000
 curvature:  -1.57 expect dE=-0.146E+00 dE for cont linesearch -0.328E-06
 trial: gam= 1.46900 g(F)=  0.932E-01 g(S)=  0.000E+00 ort =-0.261E-03 (trialstep = 0.106E+00)
 search vector abs. value=  0.796E+00
 bond charge predicted
       N       E                     dE             d eps       ncg     rms          rms(c)
DAV:   1    -0.360426230033E+04   -0.73670E-02   -0.60790E-01  5248   0.540E-01    0.313E-01
DAV:   2    -0.360426476887E+04   -0.24685E-02   -0.27035E-02  6016   0.103E-01    0.166E-01
DAV:   3    -0.360426472734E+04    0.41532E-04   -0.52690E-04  6400   0.202E-02    0.101E-01
DAV:   4    -0.360426470517E+04    0.22168E-04   -0.42983E-05  6656   0.502E-03    0.710E-02
DAV:   5    -0.360426467423E+04    0.30938E-04   -0.84498E-05  6400   0.785E-03    0.348E-02
DAV:   6    -0.360426467686E+04   -0.26244E-05   -0.31772E-05  6528   0.443E-03    0.624E-03
DAV:   7    -0.360426467683E+04    0.29759E-07   -0.32407E-06  6272   0.160E-03
 augmentation electrons   1811.98115498388     
 soft         electrons  0.000000000000000E+000
 total        electrons   1811.98115498388     
 augmentation electrons -7.875420321334400E-002
 soft         electrons  0.000000000000000E+000
 total        electrons -7.875420321334400E-002
 augmentation electrons   2212.21889220620     
 soft         electrons  0.000000000000000E+000
 total        electrons   2212.21889220620     
 augmentation electrons   2154.70173233420     
 soft         electrons  0.000000000000000E+000
 total        electrons   2154.70173233420     
 augmentation electrons   54.9416939542073     
 soft         electrons   1757.03940536133     
 total        electrons   1811.98109931554     
 augmentation electrons   37.6585453794858     
 soft         electrons   1757.03940536133     
 total        electrons   59.9212176827514     
 translations:           0           1           0
  24 F= -.36421791E+04 E0= -.36421791E+04  d E =-.733424E-02  mag=    60.0000
 ZBRENT: can't locate minimum, use default step
 trial-energy change:   -0.007334  1 .order   -0.008730   -0.009817   -0.007643
 step:   0.4233(harm=  0.4778)  dis= 0.01476  next Energy= -3642.193972 (dE=-0.222E-01)
 bond charge predicted
       N       E                     dE             d eps       ncg     rms          rms(c)
DAV:   1    -0.360426017960E+04    0.44973E-02   -0.54687E+00  5248   0.162E+00    0.950E-01
DAV:   2    -0.360428247047E+04   -0.22291E-01   -0.24382E-01  6016   0.311E-01    0.503E-01
DAV:   3    -0.360428208596E+04    0.38452E-03   -0.47400E-03  6400   0.608E-02    0.305E-01
DAV:   4    -0.360428188195E+04    0.20401E-03   -0.38519E-04  6656   0.149E-02    0.216E-01
DAV:   5    -0.360428158317E+04    0.29878E-03   -0.76068E-04  6400   0.232E-02    0.105E-01
DAV:   6    -0.360428159748E+04   -0.14313E-04   -0.28366E-04  6528   0.129E-02    0.189E-02
DAV:   7    -0.360428159704E+04    0.43913E-06   -0.27202E-05  6144   0.457E-03    0.888E-03
DAV:   8    -0.360428159669E+04    0.35635E-06   -0.29607E-06  5248   0.163E-03
 augmentation electrons   1811.93190317726     
 soft         electrons  0.000000000000000E+000
 total        electrons   1811.93190317726     
 augmentation electrons -7.818204860854983E-002
 soft         electrons  0.000000000000000E+000
 total        electrons -7.818204860854983E-002
 augmentation electrons   2187.53684366340     
 soft         electrons  0.000000000000000E+000
 total        electrons   2187.53684366340     
 augmentation electrons   2130.01968379140     
 soft         electrons  0.000000000000000E+000
 total        electrons   2130.01968379140     
 augmentation electrons   54.8934031815382     
 soft         electrons   1757.03844041606     
 total        electrons   1811.93184359760     
 augmentation electrons   37.6458180041663     
 soft         electrons   1757.03844041606     
 total        electrons   59.9217908899829     
 translations:           0           1           0
  25 F= -.36421888E+04 E0= -.36421888E+04  d E =-.169826E-01  mag=    60.0000
 curvature:  -2.00 expect dE=-0.748E-01 dE for cont linesearch -0.412E-03
 ZBRENT: extrapolating
 opt :   0.4915  next Energy= -3642.189229 (dE=-0.174E-01)
 bond charge predicted
       N       E                     dE             d eps       ncg     rms          rms(c)
DAV:   1    -0.360428167640E+04   -0.79352E-04   -0.25232E-01  5504   0.348E-01    0.201E-01
DAV:   2    -0.360428271294E+04   -0.10365E-02   -0.11300E-02  6016   0.669E-02    0.107E-01
DAV:   3    -0.360428269792E+04    0.15021E-04   -0.21757E-04  6400   0.129E-02    0.649E-02
DAV:   4    -0.360428268945E+04    0.84742E-05   -0.17270E-05  6656   0.313E-03    0.462E-02
DAV:   5    -0.360428267857E+04    0.10879E-04   -0.35822E-05  6400   0.494E-03    0.219E-02
DAV:   6    -0.360428268038E+04   -0.18070E-05   -0.12205E-05  6400   0.260E-03    0.380E-03
DAV:   7    -0.360428268036E+04    0.12267E-07   -0.90403E-07  4608   0.850E-04
 augmentation electrons   1811.92280254405     
 soft         electrons  0.000000000000000E+000
 total        electrons   1811.92280254405     
 augmentation electrons -7.795430795445737E-002
 soft         electrons  0.000000000000000E+000
 total        electrons -7.795430795445737E-002
 augmentation electrons   2182.91683183491     
 soft         electrons  0.000000000000000E+000
 total        electrons   2182.91683183491     
 augmentation electrons   2125.39967196291     
 soft         electrons  0.000000000000000E+000
 total        electrons   2125.39967196291     
 augmentation electrons   54.8845777175762     
 soft         electrons   1757.03816468774     
 total        electrons   1811.92274240531     
 augmentation electrons   37.6432195342011     
 soft         electrons   1757.03816468774     
 total        electrons   59.9220188603592     
 translations:           0           1           0
  26 F= -.36421883E+04 E0= -.36421883E+04  d E =-.164985E-01  mag=    60.0000
 curvature:  -2.12 expect dE=-0.924E-01 dE for cont linesearch -0.714E-08
 trial: gam= 0.31643 g(F)=  0.435E-01 g(S)=  0.000E+00 ort = 0.517E-04 (trialstep = 0.183E+00)
 search vector abs. value=  0.123E+00
 bond charge predicted
       N       E                     dE             d eps       ncg     rms          rms(c)
DAV:   1    -0.360428870763E+04   -0.60273E-02   -0.31531E-01  5376   0.506E-01    0.206E-01
DAV:   2    -0.360428987599E+04   -0.11684E-02   -0.13712E-02  6016   0.854E-02    0.109E-01
DAV:   3    -0.360428983497E+04    0.41015E-04   -0.34853E-04  6656   0.172E-02    0.681E-02
DAV:   4    -0.360428981348E+04    0.21495E-04   -0.35886E-05  6400   0.536E-03    0.485E-02
DAV:   5    -0.360428979578E+04    0.17698E-04   -0.45003E-05  6272   0.693E-03    0.170E-02
DAV:   6    -0.360428979731E+04   -0.15309E-05   -0.15507E-05  6400   0.325E-03    0.369E-03
DAV:   7    -0.360428979716E+04    0.14901E-06   -0.81474E-07  4096   0.939E-04
 augmentation electrons   1811.91552146240     
 soft         electrons  0.000000000000000E+000
 total        electrons   1811.91552146240     
 augmentation electrons -7.762802726225700E-002
 soft         electrons  0.000000000000000E+000
 total        electrons -7.762802726225700E-002
 augmentation electrons   2182.88780025494     
 soft         electrons  0.000000000000000E+000
 total        electrons   2182.88780025494     
 augmentation electrons   2125.37064038294     
 soft         electrons  0.000000000000000E+000
 total        electrons   2125.37064038294     
 augmentation electrons   54.8755863036385     
 soft         electrons   1757.03987456316     
 total        electrons   1811.91546086680     
 augmentation electrons   37.6418305440295     
 soft         electrons   1757.03987456316     
 total        electrons   59.9223454399475     
 translations:           0           1           0
  27 F= -.36421948E+04 E0= -.36421948E+04  d E =-.651126E-02  mag=    60.0000
 trial-energy change:   -0.006511  1 .order   -0.006198   -0.007962   -0.004435
 step:   0.3049(harm=  0.4129)  dis= 0.00369  next Energy= -3642.196390 (dE=-0.808E-02)
 bond charge predicted
       N       E                     dE             d eps       ncg     rms          rms(c)
DAV:   1    -0.360429206714E+04   -0.22698E-02   -0.14013E-01  5632   0.337E-01    0.137E-01
DAV:   2    -0.360429258690E+04   -0.51975E-03   -0.61014E-03  6016   0.570E-02    0.727E-02
DAV:   3    -0.360429256859E+04    0.18307E-04   -0.15494E-04  6656   0.115E-02    0.455E-02
DAV:   4    -0.360429255900E+04    0.95898E-05   -0.15985E-05  6400   0.357E-03    0.324E-02
DAV:   5    -0.360429255127E+04    0.77270E-05   -0.20337E-05  6272   0.463E-03    0.113E-02
DAV:   6    -0.360429255204E+04   -0.76595E-06   -0.68820E-06  6400   0.215E-03
 augmentation electrons   1811.91033238347     
 soft         electrons  0.000000000000000E+000
 total        electrons   1811.91033238347     
 augmentation electrons -7.751822792630400E-002
 soft         electrons  0.000000000000000E+000
 total        electrons -7.751822792630400E-002
 augmentation electrons   2183.03279286460     
 soft         electrons  0.000000000000000E+000
 total        electrons   2183.03279286460     
 augmentation electrons   2125.51563299260     
 soft         electrons  0.000000000000000E+000
 total        electrons   2125.51563299260     
 augmentation electrons   54.8692401936141     
 soft         electrons   1757.04103141755     
 total        electrons   1811.91027161117     
 augmentation electrons   37.6407927159208     
 soft         electrons   1757.04103141755     
 total        electrons   59.9224554380123     
 translations:           0           1           0
  28 F= -.36421972E+04 E0= -.36421972E+04  d E =-.886043E-02  mag=    60.0000
 curvature:  -0.46 expect dE=-0.763E-02 dE for cont linesearch -0.473E-03
 ZBRENT: increasing intervall
 opt :   0.5487  next Energy= -3642.196774 (dE=-0.847E-02)
 bond charge predicted
       N       E                     dE             d eps       ncg     rms          rms(c)
DAV:   1    -0.360429120654E+04    0.13447E-02   -0.56056E-01  5376   0.675E-01    0.275E-01
DAV:   2    -0.360429328208E+04   -0.20755E-02   -0.24357E-02  6016   0.114E-01    0.145E-01
DAV:   3    -0.360429320791E+04    0.74173E-04   -0.61780E-04  6656   0.230E-02    0.909E-02
DAV:   4    -0.360429316939E+04    0.38518E-04   -0.64018E-05  6400   0.716E-03    0.647E-02
DAV:   5    -0.360429313716E+04    0.32234E-04   -0.81118E-05  6272   0.931E-03    0.227E-02
DAV:   6    -0.360429313979E+04   -0.26335E-05   -0.27840E-05  6400   0.436E-03    0.493E-03
DAV:   7    -0.360429313955E+04    0.23865E-06   -0.15286E-06  5120   0.125E-03
 augmentation electrons   1811.90013582605     
 soft         electrons  0.000000000000000E+000
 total        electrons   1811.90013582605     
 augmentation electrons -7.717055854015978E-002
 soft         electrons  0.000000000000000E+000
 total        electrons -7.717055854015978E-002
 augmentation electrons   2183.76138876426     
 soft         electrons  0.000000000000000E+000
 total        electrons   2183.76138876426     
 augmentation electrons   2126.24422889226     
 soft         electrons  0.000000000000000E+000
 total        electrons   2126.24422889226     
 augmentation electrons   54.8568050559975     
 soft         electrons   1757.04326996866     
 total        electrons   1811.90007502466     
 augmentation electrons   37.6388551887131     
 soft         electrons   1757.04326996866     
 total        electrons   59.9228035038530     
 translations:           0           1           0
  29 F= -.36421969E+04 E0= -.36421969E+04  d E =-.863645E-02  mag=    60.0000
 curvature:   0.38 expect dE= 0.186E-01 dE for cont linesearch  0.727E-03
 ZBRENT: bracketing found
 ZBRENT: interpolating
 opt :   0.4083  next Energy= -3642.197754 (dE=-0.945E-02)
 bond charge predicted
       N       E                     dE             d eps       ncg     rms          rms(c)
DAV:   1    -0.360429293783E+04    0.20197E-03   -0.18527E-01  5376   0.388E-01    0.158E-01
DAV:   2    -0.360429362068E+04   -0.68286E-03   -0.80286E-03  6016   0.655E-02    0.827E-02
DAV:   3    -0.360429359615E+04    0.24533E-04   -0.20511E-04  6656   0.132E-02    0.517E-02
DAV:   4    -0.360429358338E+04    0.12772E-04   -0.21105E-05  6400   0.415E-03    0.367E-02
DAV:   5    -0.360429357183E+04    0.11543E-04   -0.25775E-05  6272   0.534E-03    0.129E-02
DAV:   6    -0.360429357226E+04   -0.42364E-06   -0.92563E-06  6400   0.256E-03
 augmentation electrons   1811.90610141836     
 soft         electrons  0.000000000000000E+000
 total        electrons   1811.90610141836     
 augmentation electrons -7.731763411042300E-002
 soft         electrons  0.000000000000000E+000
 total        electrons -7.731763411042300E-002
 augmentation electrons   2183.26752748218     
 soft         electrons  0.000000000000000E+000
 total        electrons   2183.26752748218     
 augmentation electrons   2125.75036761018     
 soft         electrons  0.000000000000000E+000
 total        electrons   2125.75036761018     
 augmentation electrons   54.8640071992693     
 soft         electrons   1757.04203338181     
 total        electrons   1811.90604058108     
 augmentation electrons   37.6400161817022     
 soft         electrons   1757.04203338181     
 total        electrons   59.9226562002568     
 translations:           0           1           0
  30 F= -.36421979E+04 E0= -.36421979E+04  d E =-.954359E-02  mag=    60.0000
 curvature:  -0.31 expect dE=-0.759E-02 dE for cont linesearch -0.528E-08
 trial: gam= 0.58125 g(F)=  0.248E-01 g(S)=  0.000E+00 ort =-0.461E-04 (trialstep = 0.228E+00)
 search vector abs. value=  0.664E-01
 bond charge predicted
       N       E                     dE             d eps       ncg     rms          rms(c)
DAV:   1    -0.360429792665E+04   -0.43548E-02   -0.23760E-01  5632   0.484E-01    0.187E-01
DAV:   2    -0.360429903959E+04   -0.11129E-02   -0.11716E-02  6016   0.753E-02    0.901E-02
DAV:   3    -0.360429904037E+04   -0.77960E-06   -0.30293E-04  6656   0.149E-02    0.531E-02
DAV:   4    -0.360429902772E+04    0.12652E-04   -0.28210E-05  6272   0.487E-03    0.376E-02
DAV:   5    -0.360429901945E+04    0.82672E-05   -0.21270E-05  6400   0.517E-03    0.134E-02
DAV:   6    -0.360429901983E+04   -0.37176E-06   -0.72695E-06  6400   0.225E-03
 augmentation electrons   1811.89965855562     
 soft         electrons  0.000000000000000E+000
 total        electrons   1811.89965855562     
 augmentation electrons -7.700341170711880E-002
 soft         electrons  0.000000000000000E+000
 total        electrons -7.700341170711880E-002
 augmentation electrons   2188.58963901142     
 soft         electrons  0.000000000000000E+000
 total        electrons   2188.58963901142     
 augmentation electrons   2131.07247913943     
 soft         electrons  0.000000000000000E+000
 total        electrons   2131.07247913943     
 augmentation electrons   54.8542028513166     
 soft         electrons   1757.04539503591     
 total        electrons   1811.89959788723     
 augmentation electrons   37.6403294316169     
 soft         electrons   1757.04539503591     
 total        electrons   59.9229707413321     
 translations:           0           1           0
  31 F= -.36422036E+04 E0= -.36422036E+04  d E =-.573289E-02  mag=    60.0000
 trial-energy change:   -0.005733  1 .order   -0.004602   -0.005653   -0.003552
 step:   0.6136(harm=  0.6136)  dis= 0.00577  next Energy= -3642.205457 (dE=-0.761E-02)
 bond charge predicted
       N       E                     dE             d eps       ncg     rms          rms(c)
DAV:   1    -0.360430074648E+04   -0.17270E-02   -0.68130E-01  5632   0.818E-01    0.317E-01
DAV:   2    -0.360430395874E+04   -0.32123E-02   -0.33604E-02  6016   0.128E-01    0.153E-01
DAV:   3    -0.360430396088E+04   -0.21412E-05   -0.85931E-04  6656   0.250E-02    0.902E-02
DAV:   4    -0.360430392483E+04    0.36050E-04   -0.81744E-05  6272   0.821E-03    0.637E-02
DAV:   5    -0.360430390299E+04    0.21847E-04   -0.63019E-05  6272   0.869E-03    0.226E-02
DAV:   6    -0.360430390463E+04   -0.16439E-05   -0.20143E-05  6400   0.369E-03    0.511E-03
DAV:   7    -0.360430390423E+04    0.40542E-06   -0.11098E-06  4608   0.119E-03
 augmentation electrons   1811.88859364717     
 soft         electrons  0.000000000000000E+000
 total        electrons   1811.88859364717     
 augmentation electrons -7.602967435281519E-002
 soft         electrons  0.000000000000000E+000
 total        electrons -7.602967435281519E-002
 augmentation electrons   2198.79995911565     
 soft         electrons  0.000000000000000E+000
 total        electrons   2198.79995911565     
 augmentation electrons   2141.28279924365     
 soft         electrons  0.000000000000000E+000
 total        electrons   2141.28279924365     
 augmentation electrons   54.8373287668840     
 soft         electrons   1757.05120500613     
 total        electrons   1811.88853377302     
 augmentation electrons   37.6412958679546     
 soft         electrons   1757.05120500613     
 total        electrons   59.9239450049278     
 translations:           0           1           0
  32 F= -.36422090E+04 E0= -.36422090E+04  d E =-.111409E-01  mag=    60.0000
 curvature:  -0.82 expect dE=-0.152E-01 dE for cont linesearch -0.614E-04
 trial: gam= 0.64165 g(F)=  0.186E-01 g(S)=  0.000E+00 ort = 0.223E-02 (trialstep = 0.305E+00)
 search vector abs. value=  0.487E-01
 bond charge predicted
       N       E                     dE             d eps       ncg     rms          rms(c)
DAV:   1    -0.360430731593E+04   -0.34113E-02   -0.33790E-01  5632   0.570E-01    0.239E-01
DAV:   2    -0.360430892930E+04   -0.16134E-02   -0.17523E-02  5888   0.946E-02    0.125E-01
DAV:   3    -0.360430891564E+04    0.13662E-04   -0.49002E-04  6400   0.192E-02    0.720E-02
DAV:   4    -0.360430889427E+04    0.21368E-04   -0.43563E-05  6400   0.590E-03    0.507E-02
DAV:   5    -0.360430887435E+04    0.19919E-04   -0.40733E-05  6144   0.700E-03    0.190E-02
DAV:   6    -0.360430887491E+04   -0.55117E-06   -0.15802E-05  6400   0.330E-03    0.422E-03
DAV:   7    -0.360430887474E+04    0.16723E-06   -0.97971E-07  4352   0.102E-03
 augmentation electrons   1811.89074700770     
 soft         electrons  0.000000000000000E+000
 total        electrons   1811.89074700770     
 augmentation electrons -7.524928618014162E-002
 soft         electrons  0.000000000000000E+000
 total        electrons -7.524928618014162E-002
 augmentation electrons   2213.03544548212     
 soft         electrons  0.000000000000000E+000
 total        electrons   2213.03544548212     
 augmentation electrons   2155.51828561012     
 soft         electrons  0.000000000000000E+000
 total        electrons   2155.51828561012     
 augmentation electrons   54.8361062167954     
 soft         electrons   1757.05458179321     
 total        electrons   1811.89068801000     
 augmentation electrons   37.6437557508350     
 soft         electrons   1757.05458179321     
 total        electrons   59.9247257305281     
 translations:           0           1           0
  33 F= -.36422144E+04 E0= -.36422144E+04  d E =-.542195E-02  mag=    60.0000
 trial-energy change:   -0.005422  1 .order   -0.004580   -0.006098   -0.003062
 step:   0.4016(harm=  0.6128)  dis= 0.00373  next Energy= -3642.214925 (dE=-0.593E-02)
 bond charge predicted
       N       E                     dE             d eps       ncg     rms          rms(c)
DAV:   1    -0.360430963165E+04   -0.75675E-03   -0.33837E-02  6016   0.180E-01    0.757E-02
DAV:   2    -0.360430979200E+04   -0.16035E-03   -0.17616E-03  5888   0.301E-02    0.393E-02
DAV:   3    -0.360430978994E+04    0.20645E-05   -0.49145E-05  6400   0.612E-03    0.228E-02
DAV:   4    -0.360430978757E+04    0.23666E-05   -0.44779E-06  6144   0.191E-03    0.161E-02
DAV:   5    -0.360430978515E+04    0.24220E-05   -0.42587E-06  6144   0.225E-03    0.597E-03
DAV:   6    -0.360430978507E+04    0.80559E-07   -0.15314E-06  4864   0.104E-03
 augmentation electrons   1811.89132437280     
 soft         electrons  0.000000000000000E+000
 total        electrons   1811.89132437280     
 augmentation electrons -7.506506050338074E-002
 soft         electrons  0.000000000000000E+000
 total        electrons -7.506506050338074E-002
 augmentation electrons   2217.76031183191     
 soft         electrons  0.000000000000000E+000
 total        electrons   2217.76031183191     
 augmentation electrons   2160.24315195991     
 soft         electrons  0.000000000000000E+000
 total        electrons   2160.24315195991     
 augmentation electrons   54.8356280673160     
 soft         electrons   1757.05563765276     
 total        electrons   1811.89126572008     
 augmentation electrons   37.6444740594836     
 soft         electrons   1757.05563765276     
 total        electrons   59.9249100603028     
 translations:           0           1           0
  34 F= -.36422155E+04 E0= -.36422155E+04  d E =-.646952E-02  mag=    60.0000
 curvature:  -0.40 expect dE=-0.384E-02 dE for cont linesearch -0.283E-03
 ZBRENT: increasing intervall
 opt :   0.5945  next Energy= -3642.215807 (dE=-0.681E-02)
 bond charge predicted
       N       E                     dE             d eps       ncg     rms          rms(c)
DAV:   1    -0.360431003267E+04   -0.24752E-03   -0.13512E-01  5760   0.361E-01    0.151E-01
DAV:   2    -0.360431067610E+04   -0.64344E-03   -0.70129E-03  5888   0.600E-02    0.788E-02
DAV:   3    -0.360431066988E+04    0.62220E-05   -0.19585E-04  6400   0.122E-02    0.455E-02
DAV:   4    -0.360431066109E+04    0.87924E-05   -0.17604E-05  6400   0.377E-03    0.320E-02
DAV:   5    -0.360431065256E+04    0.85229E-05   -0.16263E-05  6144   0.446E-03    0.121E-02
DAV:   6    -0.360431065261E+04   -0.45868E-07   -0.64438E-06  6400   0.212E-03
 augmentation electrons   1811.89263485149     
 soft         electrons  0.000000000000000E+000
 total        electrons   1811.89263485149     
 augmentation electrons -7.460508328780288E-002
 soft         electrons  0.000000000000000E+000
 total        electrons -7.460508328780288E-002
 augmentation electrons   2227.56361591294     
 soft         electrons  0.000000000000000E+000
 total        electrons   2227.56361591294     
 augmentation electrons   2170.04645604094     
 soft         electrons  0.000000000000000E+000
 total        electrons   2170.04645604094     
 augmentation electrons   54.8348451197393     
 soft         electrons   1757.05773186077     
 total        electrons   1811.89257698051     
 augmentation electrons   37.6459979597381     
 soft         electrons   1757.05773186077     
 total        electrons   59.9253702415537     
 translations:           0           1           0
  35 F= -.36422166E+04 E0= -.36422166E+04  d E =-.761361E-02  mag=    60.0000
 curvature:  -0.48 expect dE=-0.927E-02 dE for cont linesearch -0.890E-07
 trial: gam= 1.14961 g(F)=  0.193E-01 g(S)=  0.000E+00 ort =-0.950E-04 (trialstep = 0.212E+00)
 search vector abs. value=  0.835E-01
 bond charge predicted
       N       E                     dE             d eps       ncg     rms          rms(c)
DAV:   1    -0.360431293438E+04   -0.22818E-02   -0.25900E-01  5632   0.466E-01    0.219E-01
DAV:   2    -0.360431428690E+04   -0.13525E-02   -0.13915E-02  6144   0.789E-02    0.116E-01
DAV:   3    -0.360431429093E+04   -0.40360E-05   -0.33700E-04  6272   0.153E-02    0.652E-02
DAV:   4    -0.360431427922E+04    0.11713E-04   -0.25592E-05  6528   0.411E-03    0.458E-02
DAV:   5    -0.360431426426E+04    0.14965E-04   -0.30372E-05  6400   0.562E-03    0.194E-02
DAV:   6    -0.360431426443E+04   -0.17277E-06   -0.12613E-05  6528   0.289E-03    0.403E-03
DAV:   7    -0.360431426440E+04    0.28333E-07   -0.10237E-06  4736   0.936E-04
 augmentation electrons   1811.89703612559     
 soft         electrons  0.000000000000000E+000
 total        electrons   1811.89703612559     
 augmentation electrons -7.381975753532051E-002
 soft         electrons  0.000000000000000E+000
 total        electrons -7.381975753532051E-002
 augmentation electrons   2244.45966832719     
 soft         electrons  0.000000000000000E+000
 total        electrons   2244.45966832719     
 augmentation electrons   2186.94250845519     
 soft         electrons  0.000000000000000E+000
 total        electrons   2186.94250845519     
 augmentation electrons   54.8379879173435     
 soft         electrons   1757.05899196115     
 total        electrons   1811.89697987850     
 augmentation electrons   37.6490898548044     
 soft         electrons   1757.05899196115     
 total        electrons   59.9261558392709     
 translations:           0           1           0
  36 F= -.36422207E+04 E0= -.36422207E+04  d E =-.405619E-02  mag=    60.0000
 trial-energy change:   -0.004056  1 .order   -0.003477   -0.004064   -0.002890
 step:   0.7334(harm=  0.7334)  dis= 0.00978  next Energy= -3642.223638 (dE=-0.703E-02)
 bond charge predicted
       N       E                     dE             d eps       ncg     rms          rms(c)
DAV:   1    -0.360430998433E+04    0.42801E-02   -0.15653E+00  5632   0.115E+00    0.537E-01
DAV:   2    -0.360431817318E+04   -0.81889E-02   -0.84187E-02  6144   0.194E-01    0.287E-01
DAV:   3    -0.360431820682E+04   -0.33639E-04   -0.20418E-03  6272   0.376E-02    0.160E-01
DAV:   4    -0.360431813883E+04    0.67992E-04   -0.15341E-04  6528   0.101E-02    0.113E-01
DAV:   5    -0.360431805534E+04    0.83489E-04   -0.18174E-04  6400   0.139E-02    0.478E-02
DAV:   6    -0.360431805900E+04   -0.36520E-05   -0.76558E-05  6528   0.715E-03    0.100E-02
DAV:   7    -0.360431805874E+04    0.25934E-06   -0.65430E-06  5632   0.233E-03
 augmentation electrons   1811.91025640380     
 soft         electrons  0.000000000000000E+000
 total        electrons   1811.91025640380     
 augmentation electrons -7.197988989150701E-002
 soft         electrons  0.000000000000000E+000
 total        electrons -7.197988989150701E-002
 augmentation electrons   2291.56507640243     
 soft         electrons  0.000000000000000E+000
 total        electrons   2291.56507640243     
 augmentation electrons   2234.04791653043     
 soft         electrons  0.000000000000000E+000
 total        electrons   2234.04791653043     
 augmentation electrons   54.8481751037690     
 soft         electrons   1757.06203009306     
 total        electrons   1811.91020519683     
 augmentation electrons   37.6565818987349     
 soft         electrons   1757.06203009306     
 total        electrons   59.9279963168242     
 translations:           0           1           0
  37 F= -.36422255E+04 E0= -.36422255E+04  d E =-.892231E-02  mag=    60.0000
 curvature:  -1.60 expect dE=-0.390E-01 dE for cont linesearch -0.278E-04
 trial: gam= 1.12304 g(F)=  0.244E-01 g(S)=  0.000E+00 ort =-0.120E-02 (trialstep = 0.208E+00)
 search vector abs. value=  0.127E+00
 bond charge predicted
       N       E                     dE             d eps       ncg     rms          rms(c)
DAV:   1    -0.360432067619E+04   -0.26172E-02   -0.37563E-01  5504   0.530E-01    0.240E-01
DAV:   2    -0.360432224767E+04   -0.15715E-02   -0.16907E-02  6016   0.892E-02    0.130E-01
DAV:   3    -0.360432222792E+04    0.19747E-04   -0.37624E-04  6400   0.172E-02    0.778E-02
DAV:   4    -0.360432221062E+04    0.17301E-04   -0.31539E-05  6656   0.469E-03    0.545E-02
DAV:   5    -0.360432218929E+04    0.21333E-04   -0.53511E-05  6400   0.722E-03    0.212E-02
DAV:   6    -0.360432219050E+04   -0.12127E-05   -0.17542E-05  6272   0.340E-03    0.449E-03
DAV:   7    -0.360432219044E+04    0.55123E-07   -0.92732E-07  4736   0.938E-04
 augmentation electrons   1811.92358353783     
 soft         electrons  0.000000000000000E+000
 total        electrons   1811.92358353783     
 augmentation electrons -7.111403484975132E-002
 soft         electrons  0.000000000000000E+000
 total        electrons -7.111403484975132E-002
 augmentation electrons   2315.00435399418     
 soft         electrons  0.000000000000000E+000
 total        electrons   2315.00435399418     
 augmentation electrons   2257.48719412218     
 soft         electrons  0.000000000000000E+000
 total        electrons   2257.48719412218     
 augmentation electrons   54.8619144711618     
 soft         electrons   1757.06162043790     
 total        electrons   1811.92353490906     
 augmentation electrons   37.6602248732156     
 soft         electrons   1757.06162043790     
 total        electrons   59.9288624113184     
 translations:           0           1           0
  38 F= -.36422297E+04 E0= -.36422297E+04  d E =-.421195E-02  mag=    60.0000
 trial-energy change:   -0.004212  1 .order   -0.003830   -0.004797   -0.002864
 step:   0.3174(harm=  0.5158)  dis= 0.00519  next Energy= -3642.230552 (dE=-0.502E-02)
 bond charge predicted
       N       E                     dE             d eps       ncg     rms          rms(c)
DAV:   1    -0.360432316165E+04   -0.97115E-03   -0.10447E-01  5760   0.280E-01    0.127E-01
DAV:   2    -0.360432359773E+04   -0.43609E-03   -0.47009E-03  6016   0.472E-02    0.687E-02
DAV:   3    -0.360432359182E+04    0.59075E-05   -0.10516E-04  6400   0.913E-03    0.412E-02
DAV:   4    -0.360432358685E+04    0.49743E-05   -0.88454E-06  6656   0.250E-03    0.288E-02
DAV:   5    -0.360432358043E+04    0.64244E-05   -0.14897E-05  6400   0.384E-03    0.113E-02
[...]
 augmentation electrons -7.344983080847632E-002
 soft         electrons  0.000000000000000E+000
 total        electrons -7.344983080847632E-002
 augmentation electrons   2153.16761861630     
 soft         electrons  0.000000000000000E+000
 total        electrons   2153.16761861630     
 augmentation electrons   2095.65045874431     
 soft         electrons  0.000000000000000E+000
 total        electrons   2095.65045874431     
 augmentation electrons   54.7785753865753     
 soft         electrons   1757.04946260649     
 total        electrons   1811.82803799307     
 augmentation electrons   37.6629298070420     
 soft         electrons   1757.04946260649     
 total        electrons   59.9265247144473     
 translations:           0           1           0
 101 F= -.36422968E+04 E0= -.36422968E+04  d E =-.145414E-02  mag=    60.0000
 curvature:  -0.64 expect dE=-0.154E-02 dE for cont linesearch -0.137E-03
 ZBRENT: increasing intervall
 opt :   0.5220  next Energy= -3642.297077 (dE=-0.169E-02)
 bond charge predicted
       N       E                     dE             d eps       ncg     rms          rms(c)
DAV:   1    -0.360438633163E+04   -0.88018E-05   -0.82668E-02  5376   0.287E-01    0.892E-02
DAV:   2    -0.360438651228E+04   -0.18066E-03   -0.22463E-03  6400   0.414E-02    0.508E-02
DAV:   3    -0.360438649976E+04    0.12525E-04   -0.62410E-05  6656   0.813E-03    0.325E-02
DAV:   4    -0.360438649269E+04    0.70718E-05   -0.16482E-05  6528   0.435E-03    0.174E-02
DAV:   5    -0.360438649247E+04    0.21592E-06   -0.65843E-06  6400   0.248E-03
 augmentation electrons   1811.81950976332     
 soft         electrons  0.000000000000000E+000
 total        electrons   1811.81950976332     
 augmentation electrons -7.339064507967130E-002
 soft         electrons  0.000000000000000E+000
 total        electrons -7.339064507967130E-002
 augmentation electrons   2145.91747658876     
 soft         electrons  0.000000000000000E+000
 total        electrons   2145.91747658876     
 augmentation electrons   2088.40031671676     
 soft         electrons  0.000000000000000E+000
 total        electrons   2088.40031671676     
 augmentation electrons   54.7700343746108     
 soft         electrons   1757.04943012421     
 total        electrons   1811.81946449882     
 augmentation electrons   37.6631149232022     
 soft         electrons   1757.04943012421     
 total        electrons   59.9265838397461     
 translations:           0           1           0
 102 F= -.36422972E+04 E0= -.36422972E+04  d E =-.177111E-02  mag=    60.0000
 curvature:  -1.12 expect dE=-0.555E-02 dE for cont linesearch -0.116E-04
 trial: gam= 0.93303 g(F)=  0.495E-02 g(S)=  0.000E+00 ort =-0.534E-03 (trialstep = 0.253E+00)
 search vector abs. value=  0.280E-01
 bond charge predicted
       N       E                     dE             d eps       ncg     rms          rms(c)
DAV:   1    -0.360438694712E+04   -0.45444E-03   -0.95566E-02  5248   0.328E-01    0.105E-01
DAV:   2    -0.360438721683E+04   -0.26970E-03   -0.30618E-03  6144   0.468E-02    0.570E-02
DAV:   3    -0.360438720974E+04    0.70892E-05   -0.88296E-05  6912   0.939E-03    0.358E-02
DAV:   4    -0.360438720300E+04    0.67355E-05   -0.16070E-05  6400   0.437E-03    0.202E-02
DAV:   5    -0.360438720245E+04    0.55527E-06   -0.67412E-06  6528   0.271E-03
 augmentation electrons   1811.80654966696     
 soft         electrons  0.000000000000000E+000
 total        electrons   1811.80654966696     
 augmentation electrons -7.324968415678751E-002
 soft         electrons  0.000000000000000E+000
 total        electrons -7.324968415678751E-002
 augmentation electrons   2138.57876432676     
 soft         electrons  0.000000000000000E+000
 total        electrons   2138.57876432676     
 augmentation electrons   2081.06160445476     
 soft         electrons  0.000000000000000E+000
 total        electrons   2081.06160445476     
 augmentation electrons   54.7566496385491     
 soft         electrons   1757.04985464381     
 total        electrons   1811.80650428236     
 augmentation electrons   37.6632039129659     
 soft         electrons   1757.04985464381     
 total        electrons   59.9267247028962     
 translations:           0           1           0
 103 F= -.36422982E+04 E0= -.36422982E+04  d E =-.101378E-02  mag=    60.0000
 trial-energy change:   -0.001014  1 .order   -0.000866   -0.001127   -0.000604
 step:   0.3418(harm=  0.5454)  dis= 0.00126  next Energy= -3642.298280 (dE=-0.113E-02)
 bond charge predicted
       N       E                     dE             d eps       ncg     rms          rms(c)
DAV:   1    -0.360438729904E+04   -0.96034E-04   -0.11894E-02  5760   0.115E-01    0.375E-02
DAV:   2    -0.360438733220E+04   -0.33164E-04   -0.38347E-04  6144   0.167E-02    0.202E-02
DAV:   3    -0.360438733105E+04    0.11488E-05   -0.11286E-05  6912   0.341E-03    0.127E-02
DAV:   4    -0.360438733014E+04    0.91398E-06   -0.19499E-06  5248   0.156E-03
 augmentation electrons   1811.80227274137     
 soft         electrons  0.000000000000000E+000
 total        electrons   1811.80227274137     
 augmentation electrons -7.324390418970292E-002
 soft         electrons  0.000000000000000E+000
 total        electrons -7.324390418970292E-002
 augmentation electrons   2136.08946307968     
 soft         electrons  0.000000000000000E+000
 total        electrons   2136.08946307968     
 augmentation electrons   2078.57230320768     
 soft         electrons  0.000000000000000E+000
 total        electrons   2078.57230320768     
 augmentation electrons   54.7521992707813     
 soft         electrons   1757.05002804189     
 total        electrons   1811.80222731267     
 augmentation electrons   37.6631936119504     
 soft         electrons   1757.05002804189     
 total        electrons   59.9267304485930     
 translations:           0           1           0
 104 F= -.36422984E+04 E0= -.36422984E+04  d E =-.125839E-02  mag=    60.0000
 curvature:  -0.88 expect dE=-0.316E-02 dE for cont linesearch -0.955E-04
 ZBRENT: increasing intervall
 opt :   0.5195  next Energy= -3642.298606 (dE=-0.145E-02)
 bond charge predicted
       N       E                     dE             d eps       ncg     rms          rms(c)
DAV:   1    -0.360438727009E+04    0.60965E-04   -0.46667E-02  5504   0.230E-01    0.729E-02
DAV:   2    -0.360438740134E+04   -0.13126E-03   -0.14819E-03  6144   0.325E-02    0.394E-02
DAV:   3    -0.360438739881E+04    0.25277E-05   -0.42694E-05  6912   0.644E-03    0.247E-02
DAV:   4    -0.360438739586E+04    0.29567E-05   -0.71122E-06  6400   0.289E-03    0.139E-02
DAV:   5    -0.360438739562E+04    0.24108E-06   -0.30054E-06  6528   0.180E-03
 augmentation electrons   1811.79413383643     
 soft         electrons  0.000000000000000E+000
 total        electrons   1811.79413383643     
 augmentation electrons -7.318805281090587E-002
 soft         electrons  0.000000000000000E+000
 total        electrons -7.318805281090587E-002
 augmentation electrons   2131.24588315284     
 soft         electrons  0.000000000000000E+000
 total        electrons   2131.24588315284     
 augmentation electrons   2073.72872328084     
 soft         electrons  0.000000000000000E+000
 total        electrons   2073.72872328084     
 augmentation electrons   54.7437919458090     
 soft         electrons   1757.05029637073     
 total        electrons   1811.79408831654     
 augmentation electrons   37.6632206533920     
 soft         electrons   1757.05029637073     
 total        electrons   59.9267862315561     
 translations:           0           1           0
 105 F= -.36422987E+04 E0= -.36422987E+04  d E =-.153275E-02  mag=    60.0000
 curvature:  -1.79 expect dE=-0.897E-02 dE for cont linesearch -0.492E-05
 trial: gam= 0.67444 g(F)=  0.500E-02 g(S)=  0.000E+00 ort = 0.277E-03 (trialstep = 0.306E+00)
 search vector abs. value=  0.181E-01
 bond charge predicted
       N       E                     dE             d eps       ncg     rms          rms(c)
DAV:   1    -0.360438790242E+04   -0.50657E-03   -0.97827E-02  5504   0.360E-01    0.117E-01
DAV:   2    -0.360438828731E+04   -0.38489E-03   -0.40882E-03  6144   0.534E-02    0.615E-02
DAV:   3    -0.360438828686E+04    0.44922E-06   -0.12262E-04  6656   0.104E-02    0.367E-02
DAV:   4    -0.360438827928E+04    0.75805E-05   -0.14516E-05  6656   0.419E-03    0.214E-02
DAV:   5    -0.360438827807E+04    0.12116E-05   -0.84823E-06  6272   0.326E-03    0.550E-03
DAV:   6    -0.360438827822E+04   -0.15381E-06   -0.14145E-06  4480   0.122E-03
 augmentation electrons   1811.78296159932     
 soft         electrons  0.000000000000000E+000
 total        electrons   1811.78296159932     
 augmentation electrons -7.283258183889521E-002
 soft         electrons  0.000000000000000E+000
 total        electrons -7.283258183889521E-002
 augmentation electrons   2126.33707955949     
 soft         electrons  0.000000000000000E+000
 total        electrons   2126.33707955949     
 augmentation electrons   2068.81991968749     
 soft         electrons  0.000000000000000E+000
 total        electrons   2068.81991968749     
 augmentation electrons   54.7317564867901     
 soft         electrons   1757.05115909712     
 total        electrons   1811.78291558391     
 augmentation electrons   37.6633512165450     
 soft         electrons   1757.05115909712     
 total        electrons   59.9271415744291     
 translations:           0           1           0
 106 F= -.36423000E+04 E0= -.36423000E+04  d E =-.134099E-02  mag=    60.0000
 trial-energy change:   -0.001341  1 .order   -0.001101   -0.001589   -0.000613
 step:   0.3749(harm=  0.4985)  dis= 0.00116  next Energy= -3642.300098 (dE=-0.141E-02)
 bond charge predicted
       N       E                     dE             d eps       ncg     rms          rms(c)
DAV:   1    -0.360438832584E+04   -0.47777E-04   -0.49413E-03  6016   0.808E-02    0.265E-02
DAV:   2    -0.360438834508E+04   -0.19238E-04   -0.20777E-04  6144   0.121E-02    0.139E-02
DAV:   3    -0.360438834493E+04    0.15643E-06   -0.62180E-06  6656   0.236E-03
 augmentation electrons   1811.78064773449     
 soft         electrons  0.000000000000000E+000
 total        electrons   1811.78064773449     
 augmentation electrons -7.276872945750583E-002
 soft         electrons  0.000000000000000E+000
 total        electrons -7.276872945750583E-002
 augmentation electrons   2125.30364086826     
 soft         electrons  0.000000000000000E+000
 total        electrons   2125.30364086826     
 augmentation electrons   2067.78648099626     
 soft         electrons  0.000000000000000E+000
 total        electrons   2067.78648099626     
 augmentation electrons   54.7292010298024     
 soft         electrons   1757.05140057732     
 total        electrons   1811.78060160713     
 augmentation electrons   37.6633570285121     
 soft         electrons   1757.05140057732     
 total        electrons   59.9272053978924     
 translations:           0           1           0
 107 F= -.36423002E+04 E0= -.36423002E+04  d E =-.152356E-02  mag=    60.0000
 curvature:  -0.51 expect dE=-0.101E-02 dE for cont linesearch -0.509E-04
 ZBRENT: increasing intervall
 opt :   0.5120  next Energy= -3642.300304 (dE=-0.162E-02)
 bond charge predicted
       N       E                     dE             d eps       ncg     rms          rms(c)
DAV:   1    -0.360438826223E+04    0.82852E-04   -0.19239E-02  5760   0.161E-01    0.507E-02
DAV:   2    -0.360438833822E+04   -0.75989E-04   -0.79901E-04  6144   0.235E-02    0.269E-02
DAV:   3    -0.360438833886E+04   -0.64545E-06   -0.24176E-05  6656   0.452E-03    0.163E-02
DAV:   4    -0.360438833757E+04    0.12978E-05   -0.25053E-06  6016   0.178E-03    0.921E-03
DAV:   5    -0.360438833739E+04    0.17635E-06   -0.14384E-06  3968   0.139E-03
 augmentation electrons   1811.77629953314     
 soft         electrons  0.000000000000000E+000
 total        electrons   1811.77629953314     
 augmentation electrons -7.262402081644348E-002
 soft         electrons  0.000000000000000E+000
 total        electrons -7.262402081644348E-002
 augmentation electrons   2123.30020620375     
 soft         electrons  0.000000000000000E+000
 total        electrons   2123.30020620375     
 augmentation electrons   2065.78304633175     
 soft         electrons  0.000000000000000E+000
 total        electrons   2065.78304633175     
 augmentation electrons   54.7244883324236     
 soft         electrons   1757.05176484811     
 total        electrons   1811.77625318053     
 augmentation electrons   37.6634051410706     
 soft         electrons   1757.05176484811     
 total        electrons   59.9273500483523     
 translations:           0           1           0
 108 F= -.36423004E+04 E0= -.36423004E+04  d E =-.170931E-02  mag=    60.0000
 curvature:  -0.95 expect dE=-0.314E-02 dE for cont linesearch -0.347E-08
 trial: gam= 0.77512 g(F)=  0.332E-02 g(S)=  0.000E+00 ort =-0.816E-05 (trialstep = 0.347E+00)
 search vector abs. value=  0.142E-01
 bond charge predicted
       N       E                     dE             d eps       ncg     rms          rms(c)
DAV:   1    -0.360438835497E+04   -0.17408E-04   -0.10073E-01  5888   0.386E-01    0.133E-01
DAV:   2    -0.360438886778E+04   -0.51281E-03   -0.51005E-03  6144   0.566E-02    0.665E-02
DAV:   3    -0.360438887722E+04   -0.94382E-05   -0.16039E-04  6400   0.112E-02    0.374E-02
DAV:   4    -0.360438887114E+04    0.60852E-05   -0.14796E-05  6656   0.407E-03    0.233E-02
DAV:   5    -0.360438886941E+04    0.17269E-05   -0.79515E-06  6272   0.349E-03    0.682E-03
DAV:   6    -0.360438886966E+04   -0.25239E-06   -0.17287E-06  5248   0.127E-03
 augmentation electrons   1811.76725425189     
 soft         electrons  0.000000000000000E+000
 total        electrons   1811.76725425189     
 augmentation electrons -7.221061005997992E-002
 soft         electrons  0.000000000000000E+000
 total        electrons -7.221061005997992E-002
 augmentation electrons   2120.27587433401     
 soft         electrons  0.000000000000000E+000
 total        electrons   2120.27587433401     
 augmentation electrons   2062.75871446201     
 soft         electrons  0.000000000000000E+000
 total        electrons   2062.75871446201     
 augmentation electrons   54.7144769668806     
 soft         electrons   1757.05273018891     
 total        electrons   1811.76720715579     
 augmentation electrons   37.6634365762127     
 soft         electrons   1757.05273018891     
 total        electrons   59.9277632866854     
 translations:           0           1           0
 109 F= -.36423014E+04 E0= -.36423014E+04  d E =-.104115E-02  mag=    60.0000
 trial-energy change:   -0.001041  1 .order   -0.000791   -0.001152   -0.000430
 step:   0.4077(harm=  0.5544)  dis= 0.00119  next Energy= -3642.301475 (dE=-0.108E-02)
 bond charge predicted
       N       E                     dE             d eps       ncg     rms          rms(c)
DAV:   1    -0.360438887665E+04   -0.72393E-05   -0.30600E-03  6016   0.670E-02    0.235E-02
DAV:   2    -0.360438889204E+04   -0.15388E-04   -0.15543E-04  6144   0.991E-03    0.116E-02
DAV:   3    -0.360438889219E+04   -0.15755E-06   -0.47223E-06  5376   0.198E-03
 augmentation electrons   1811.76587239445     
 soft         electrons  0.000000000000000E+000
 total        electrons   1811.76587239445     
 augmentation electrons -7.215505703912561E-002
 soft         electrons  0.000000000000000E+000
 total        electrons -7.215505703912561E-002
 augmentation electrons   2119.79749345003     
 soft         electrons  0.000000000000000E+000
 total        electrons   2119.79749345003     
 augmentation electrons   2062.28033357803     
 soft         electrons  0.000000000000000E+000
 total        electrons   2062.28033357803     
 augmentation electrons   54.7128729739438     
 soft         electrons   1757.05295219418     
 total        electrons   1811.76582516812     
 augmentation electrons   37.6634130207219     
 soft         electrons   1757.05295219418     
 total        electrons   59.9278188093835     
 translations:           0           1           0
 110 F= -.36423016E+04 E0= -.36423016E+04  d E =-.116202E-02  mag=    60.0000
 curvature:  -0.59 expect dE=-0.131E-02 dE for cont linesearch -0.348E-04
 ZBRENT: increasing intervall
 opt :   0.5281  next Energy= -3642.301629 (dE=-0.123E-02)
 bond charge predicted
       N       E                     dE             d eps       ncg     rms          rms(c)
DAV:   1    -0.360438881287E+04    0.79168E-04   -0.11894E-02  5888   0.134E-01    0.450E-02
DAV:   2    -0.360438887389E+04   -0.61021E-04   -0.60329E-04  6144   0.192E-02    0.227E-02
DAV:   3    -0.360438887544E+04   -0.15544E-05   -0.18889E-05  6400   0.378E-03    0.130E-02
DAV:   4    -0.360438887482E+04    0.62605E-06   -0.14570E-06  5120   0.132E-03
 augmentation electrons   1811.76329848098     
 soft         electrons  0.000000000000000E+000
 total        electrons   1811.76329848098     
 augmentation electrons -7.202156684962704E-002
 soft         electrons  0.000000000000000E+000
 total        electrons -7.202156684962704E-002
 augmentation electrons   2118.87565138290     
 soft         electrons  0.000000000000000E+000
 total        electrons   2118.87565138290     
 augmentation electrons   2061.35849151090     
 soft         electrons  0.000000000000000E+000
 total        electrons   2061.35849151090     
 augmentation electrons   54.7099630421197     
 soft         electrons   1757.05328795077     
 total        electrons   1811.76325099289     
 augmentation electrons   37.6634145372978     
 soft         electrons   1757.05328795077     
 total        electrons   59.9279522384664     
 translations:           0           1           0
 111 F= -.36423017E+04 E0= -.36423017E+04  d E =-.131951E-02  mag=    60.0000
 curvature:  -1.21 expect dE=-0.373E-02 dE for cont linesearch -0.412E-05
 trial: gam= 0.77469 g(F)=  0.309E-02 g(S)=  0.000E+00 ort = 0.220E-03 (trialstep = 0.384E+00)
 search vector abs. value=  0.119E-01
 bond charge predicted
       N       E                     dE             d eps       ncg     rms          rms(c)
DAV:   1    -0.360438877551E+04    0.99936E-04   -0.11107E-01  5760   0.405E-01    0.137E-01
DAV:   2    -0.360438931319E+04   -0.53768E-03   -0.53988E-03  6144   0.589E-02    0.696E-02
DAV:   3    -0.360438932071E+04   -0.75181E-05   -0.16851E-04  6528   0.117E-02    0.393E-02
DAV:   4    -0.360438931315E+04    0.75634E-05   -0.18486E-05  6784   0.463E-03    0.238E-02
DAV:   5    -0.360438931162E+04    0.15244E-05   -0.94494E-06  6272   0.377E-03    0.683E-03
DAV:   6    -0.360438931192E+04   -0.30301E-06   -0.18542E-06  4736   0.137E-03
 augmentation electrons   1811.75625835210     
 soft         electrons  0.000000000000000E+000
 total        electrons   1811.75625835210     
 augmentation electrons -7.160862514414590E-002
 soft         electrons  0.000000000000000E+000
 total        electrons -7.160862514414590E-002
 augmentation electrons   2116.67016374838     
 soft         electrons  0.000000000000000E+000
 total        electrons   2116.67016374838     
 augmentation electrons   2059.15300387637     
 soft         electrons  0.000000000000000E+000
 total        electrons   2059.15300387637     
 augmentation electrons   54.7026152212777     
 soft         electrons   1757.05359489482     
 total        electrons   1811.75621011610     
 augmentation electrons   37.6634087358324     
 soft         electrons   1757.05359489482     
 total        electrons   59.9283649740834     
 translations:           0           1           0
 112 F= -.36423026E+04 E0= -.36423026E+04  d E =-.874634E-03  mag=    60.0000
 trial-energy change:   -0.000875  1 .order   -0.000750   -0.001250   -0.000249
 step:   0.4352(harm=  0.4792)  dis= 0.00128  next Energy= -3642.302607 (dE=-0.892E-03)
 reached required accuracy - stopping structural energy minimisation
 writing wavefunctions
