 ----------------------------------------------------
    OOO  PPPP  EEEEE N   N M   M PPPP
   O   O P   P E     NN  N MM MM P   P
   O   O PPPP  EEEEE N N N M M M PPPP   -- VERSION
   O   O P     E     N  NN M   M P
    OOO  P     EEEEE N   N M   M P
 ----------------------------------------------------
 running  512 mpi-ranks, with    1 threads/rank
 distrk:  each k-point on  512 cores,    1 groups
 distr:  one band on    4 cores,  128 groups
 vasp.6.3.2 27Jun22 (build Nov 12 2024 19:13:04) complex                        
  
 POSCAR found type information on POSCAR MnBrN C H 
 POSCAR found :  5 types and     635 ions
 scaLAPACK will be used
 LDA part: xc-table for Pade appr. of Perdew
 POSCAR, INCAR and KPOINTS ok, starting setup
 FFT: planning ... GRIDC
 FFT: planning ... GRID_SOFT
 FFT: planning ... GRID
 WAVECAR not read
 entering main loop
       N       E                     dE             d eps       ncg     rms          rms(c)
DAV:   1     0.982042805285E+04    0.98204E+04   -0.80286E+05  5376   0.119E+03
DAV:   2    -0.263236887771E+04   -0.12453E+05   -0.12028E+05  6400   0.259E+02
DAV:   3    -0.385784221948E+04   -0.12255E+04   -0.12147E+04  6400   0.864E+01
DAV:   4    -0.389024152133E+04   -0.32399E+02   -0.32159E+02  6784   0.159E+01
DAV:   5    -0.389113946126E+04   -0.89794E+00   -0.89685E+00  6656   0.255E+00    0.147E+02
DAV:   6    -0.422596453234E+04   -0.33483E+03   -0.27732E+03  6400   0.435E+01    0.329E+02
DAV:   7    -0.374648962954E+04    0.47947E+03   -0.61940E+02  6400   0.323E+01    0.163E+02
DAV:   8    -0.432841185621E+04   -0.58192E+03   -0.29593E+03  8064   0.598E+01    0.165E+02
DAV:   9    -0.376536741886E+04    0.56304E+03   -0.94947E+03  8192   0.338E+01    0.123E+02
DAV:  10    -0.387515372751E+04   -0.10979E+03   -0.14651E+03  6912   0.230E+01    0.135E+02
DAV:  11    -0.365258663071E+04    0.22257E+03   -0.90192E+02  6784   0.223E+01    0.119E+02
DAV:  12    -0.365046032490E+04    0.21263E+01   -0.59771E+02  6912   0.145E+01    0.103E+02
DAV:  13    -0.364272538080E+04    0.77349E+01   -0.35714E+02  6784   0.991E+00    0.118E+02
DAV:  14    -0.356825832523E+04    0.74467E+02   -0.23938E+02  6528   0.102E+01    0.883E+01
DAV:  15    -0.357108972425E+04   -0.28314E+01   -0.10097E+02  6400   0.453E+00    0.846E+01
DAV:  16    -0.357165047697E+04   -0.56075E+00   -0.12814E+02  6016   0.396E+00    0.902E+01
DAV:  17    -0.355926040929E+04    0.12390E+02   -0.11833E+02  6272   0.365E+00    0.788E+01
DAV:  18    -0.355949057174E+04   -0.23016E+00   -0.12541E+02  5760   0.213E+00    0.716E+01
DAV:  19    -0.355474251355E+04    0.47481E+01   -0.24908E+01  5888   0.159E+00    0.574E+01
DAV:  20    -0.355604183518E+04   -0.12993E+01   -0.15515E+00  5632   0.931E-01    0.565E+01
DAV:  21    -0.355538896891E+04    0.65287E+00   -0.10686E-01  6272   0.352E-01    0.552E+01
DAV:  22    -0.355532429663E+04    0.64672E-01   -0.10692E-02  5760   0.130E-01    0.553E+01
DAV:  23    -0.355506702120E+04    0.25728E+00   -0.18459E+00  6272   0.225E-01    0.528E+01
DAV:  24    -0.355507530187E+04   -0.82807E-02   -0.65598E-02  5632   0.278E-01    0.529E+01
DAV:  25    -0.355510560697E+04   -0.30305E-01   -0.29973E-02  6272   0.540E-02    0.529E+01
DAV:  26    -0.355512642217E+04   -0.20815E-01   -0.15276E-01  6144   0.497E-02    0.528E+01
DAV:  27    -0.355529457449E+04   -0.16815E+00   -0.49265E+00  6272   0.507E-01    0.548E+01
DAV:  28    -0.355544914122E+04   -0.15457E+00   -0.31810E-01  5632   0.453E-01    0.537E+01
DAV:  29    -0.355545793312E+04   -0.87919E-02   -0.21871E-02  5632   0.170E-01    0.537E+01
DAV:  30    -0.355546586371E+04   -0.79306E-02   -0.22197E-02  6656   0.490E-02    0.538E+01
DAV:  31    -0.355585250510E+04   -0.38664E+00   -0.59040E+00  6016   0.301E-01    0.550E+01
DAV:  32    -0.355604665697E+04   -0.19415E+00   -0.45715E+00  5632   0.806E-01    0.521E+01
DAV:  33    -0.355565240331E+04    0.39425E+00   -0.14595E+01  5760   0.816E-01    0.536E+01
DAV:  34    -0.355639238540E+04   -0.73998E+00   -0.15754E+01  5888   0.792E-01    0.565E+01
DAV:  35    -0.355677046035E+04   -0.37807E+00   -0.20471E+00  5632   0.581E-01    0.600E+01
DAV:  36    -0.355680763137E+04   -0.37171E-01   -0.11146E-01  5376   0.339E-01    0.600E+01
DAV:  37    -0.355711724459E+04   -0.30961E+00   -0.75793E+00  6656   0.584E-01    0.585E+01
DAV:  38    -0.355710387192E+04    0.13373E-01   -0.65639E-01  5504   0.581E-01    0.566E+01
DAV:  39    -0.355838975710E+04   -0.12859E+01   -0.30145E+00  6400   0.341E-01    0.566E+01
DAV:  40    -0.355877950153E+04   -0.38974E+00   -0.22562E+00  6144   0.605E-01    0.561E+01
DAV:  41    -0.355825225254E+04    0.52725E+00   -0.11136E+00  6016   0.546E-01    0.569E+01
DAV:  42    -0.355817720511E+04    0.75047E-01   -0.20863E-01  5888   0.278E-01    0.567E+01
DAV:  43    -0.355793870807E+04    0.23850E+00   -0.55389E-01  6144   0.295E-01    0.558E+01
DAV:  44    -0.355876179674E+04   -0.82309E+00   -0.21740E+01  6400   0.153E+00    0.545E+01
DAV:  45    -0.355868709000E+04    0.74707E-01   -0.17914E+00  5376   0.895E-01    0.555E+01
DAV:  46    -0.355874800166E+04   -0.60912E-01   -0.11749E-01  6016   0.311E-01    0.550E+01
DAV:  47    -0.355894004565E+04   -0.19204E+00   -0.10471E+00  6272   0.311E-01    0.551E+01
DAV:  48    -0.355895043265E+04   -0.10387E-01   -0.12293E-01  5632   0.271E-01    0.561E+01
DAV:  49    -0.355918767133E+04   -0.23724E+00   -0.11898E+01  6528   0.110E+00    0.494E+01
DAV:  50    -0.356256534241E+04   -0.33777E+01   -0.66395E+00  6144   0.219E+00    0.457E+01
DAV:  51    -0.356384387180E+04   -0.12785E+01   -0.22114E+01  6144   0.446E+00    0.391E+01
DAV:  52    -0.356357468395E+04    0.26919E+00   -0.11899E+01  6400   0.390E+00    0.300E+01
DAV:  53    -0.356512951158E+04   -0.15548E+01   -0.53519E+00  6400   0.265E+00    0.258E+01
DAV:  54    -0.356164921850E+04    0.34803E+01   -0.96885E+00  6272   0.310E+00    0.278E+01
DAV:  55    -0.355998906367E+04    0.16602E+01   -0.29241E+00  6272   0.177E+00    0.270E+01
DAV:  56    -0.355919739508E+04    0.79167E+00   -0.64214E+01  6144   0.509E+00    0.418E+01
DAV:  57    -0.356222592307E+04   -0.30285E+01   -0.37899E+00  5888   0.236E+00    0.379E+01
DAV:  58    -0.356113080840E+04    0.10951E+01   -0.38543E+00  6144   0.150E+00    0.321E+01
DAV:  59    -0.356198765797E+04   -0.85685E+00   -0.38480E-01  5760   0.731E-01    0.325E+01
DAV:  60    -0.356272058238E+04   -0.73292E+00   -0.45389E-01  6656   0.919E-01    0.323E+01
DAV:  61    -0.356616029507E+04   -0.34397E+01   -0.35678E+01  6400   0.412E+00    0.529E+01
DAV:  62    -0.356356961358E+04    0.25907E+01   -0.24590E+01  5888   0.288E+00    0.343E+01
DAV:  63    -0.356340691765E+04    0.16270E+00   -0.69336E+00  6272   0.143E+00    0.353E+01
DAV:  64    -0.356400156006E+04   -0.59464E+00   -0.29632E-01  5888   0.541E-01    0.350E+01
DAV:  65    -0.356421694796E+04   -0.21539E+00   -0.17310E+00  6272   0.583E-01    0.356E+01
DAV:  66    -0.356762476960E+04   -0.34078E+01   -0.85369E+00  6656   0.257E+00    0.317E+01
DAV:  67    -0.356697555616E+04    0.64921E+00   -0.21742E+00  5760   0.152E+00    0.284E+01
DAV:  68    -0.356815573535E+04   -0.11802E+01   -0.54418E+00  6528   0.133E+00    0.283E+01
DAV:  69    -0.356814663731E+04    0.90980E-02   -0.19595E+00  6272   0.737E-01    0.277E+01
DAV:  70    -0.356820428144E+04   -0.57644E-01   -0.15063E-01  6656   0.544E-01    0.273E+01
DAV:  71    -0.356748688187E+04    0.71740E+00   -0.40555E-01  6656   0.930E-01    0.268E+01
DAV:  72    -0.356672092178E+04    0.76596E+00   -0.10604E+00  7296   0.117E+00    0.289E+01
DAV:  73    -0.356658587161E+04    0.13505E+00   -0.27884E-01  6272   0.558E-01    0.298E+01
DAV:  74    -0.356610289892E+04    0.48297E+00   -0.38814E-01  6400   0.453E-01    0.299E+01
DAV:  75    -0.356625887717E+04   -0.15598E+00   -0.59638E-02  6144   0.297E-01    0.308E+01
DAV:  76    -0.356300492048E+04    0.32540E+01   -0.27016E+01  6528   0.229E+00    0.278E+01
DAV:  77    -0.356430690458E+04   -0.13020E+01   -0.24117E+00  5888   0.138E+00    0.263E+01
DAV:  78    -0.356522376972E+04   -0.91687E+00   -0.17591E-01  5888   0.509E-01    0.260E+01
DAV:  79    -0.356656477836E+04   -0.13410E+01   -0.59212E-01  6528   0.114E+00    0.254E+01
DAV:  80    -0.356632243087E+04    0.24235E+00   -0.11824E+00  6400   0.155E+00    0.255E+01
DAV:  81    -0.356680213760E+04   -0.47971E+00   -0.22483E+01  6528   0.223E+00    0.376E+01
DAV:  82    -0.356725499455E+04   -0.45286E+00   -0.74235E+00  5888   0.198E+00    0.278E+01
DAV:  83    -0.356741921771E+04   -0.16422E+00   -0.20769E-01  5760   0.431E-01    0.277E+01
DAV:  84    -0.356754322700E+04   -0.12401E+00   -0.96492E-02  6144   0.322E-01    0.275E+01
DAV:  85    -0.356765638702E+04   -0.11316E+00   -0.23155E+00  6016   0.899E-01    0.270E+01
DAV:  86    -0.357086448877E+04   -0.32081E+01   -0.49689E+01  6528   0.653E+00    0.320E+01
DAV:  87    -0.356988320681E+04    0.98128E+00   -0.95859E+00  6016   0.227E+00    0.242E+01
DAV:  88    -0.356957908558E+04    0.30412E+00   -0.28196E+00  6656   0.194E+00    0.226E+01
DAV:  89    -0.356834343316E+04    0.12357E+01   -0.41681E+00  6912   0.171E+00    0.240E+01
DAV:  90    -0.356902435787E+04   -0.68092E+00   -0.49319E-01  5760   0.648E-01    0.238E+01
DAV:  91    -0.357335315227E+04   -0.43288E+01   -0.14421E+01  6272   0.391E+00    0.237E+01
DAV:  92    -0.357403547666E+04   -0.68232E+00   -0.31703E+00  6144   0.159E+00    0.215E+01
DAV:  93    -0.357457666670E+04   -0.54119E+00   -0.20087E+00  7168   0.140E+00    0.200E+01
DAV:  94    -0.357549095920E+04   -0.91429E+00   -0.62880E+00  6784   0.158E+00    0.189E+01
DAV:  95    -0.357657438547E+04   -0.10834E+01   -0.65069E+00  5632   0.961E-01    0.183E+01
DAV:  96    -0.357780946159E+04   -0.12351E+01   -0.31767E+00  7040   0.199E+00    0.171E+01
DAV:  97    -0.357938276194E+04   -0.15733E+01   -0.48116E+00  6656   0.117E+00    0.228E+01
DAV:  98    -0.357939145717E+04   -0.86952E-02   -0.28052E-01  5888   0.525E-01    0.220E+01
DAV:  99    -0.357937297277E+04    0.18484E-01   -0.14187E-02  6016   0.107E-01    0.220E+01
DAV: 100    -0.357931160289E+04    0.61370E-01   -0.15997E-02  6272   0.124E-01    0.218E+01
DAV: 101    -0.357877737547E+04    0.53423E+00   -0.56358E-01  6400   0.973E-01    0.216E+01
DAV: 102    -0.357889188365E+04   -0.11451E+00   -0.58109E-02  5888   0.204E-01    0.216E+01
DAV: 103    -0.357903251402E+04   -0.14063E+00   -0.26994E-01  6400   0.201E-01    0.218E+01
DAV: 104    -0.357906210704E+04   -0.29593E-01   -0.80549E-02  6144   0.923E-02    0.218E+01
DAV: 105    -0.357901978593E+04    0.42321E-01   -0.24512E-01  6016   0.206E-01    0.215E+01
DAV: 106    -0.358000636026E+04   -0.98657E+00   -0.75425E+00  6272   0.167E+00    0.250E+01
DAV: 107    -0.357964914589E+04    0.35721E+00   -0.60636E+00  5888   0.127E+00    0.224E+01
DAV: 108    -0.357950505853E+04    0.14409E+00   -0.44835E-01  5888   0.622E-01    0.228E+01
DAV: 109    -0.357942782036E+04    0.77238E-01   -0.11414E-01  5888   0.360E-01    0.217E+01
DAV: 110    -0.357923205292E+04    0.19577E+00   -0.37612E-01  7040   0.384E-01    0.196E+01
DAV: 111    -0.357997299786E+04   -0.74094E+00   -0.88388E+00  6144   0.118E+00    0.238E+01
DAV: 112    -0.357981566725E+04    0.15733E+00   -0.11643E+00  5632   0.846E-01    0.230E+01
DAV: 113    -0.357971736263E+04    0.98305E-01   -0.98770E-01  6784   0.686E-01    0.203E+01
DAV: 114    -0.358008577405E+04   -0.36841E+00   -0.46200E-01  6144   0.324E-01    0.202E+01
DAV: 115    -0.357994772444E+04    0.13805E+00   -0.74405E-01  6656   0.238E-01    0.203E+01
DAV: 116    -0.357855878252E+04    0.13889E+01   -0.29916E+01  6656   0.315E+00    0.255E+01
DAV: 117    -0.357909534628E+04   -0.53656E+00   -0.30078E+00  6144   0.111E+00    0.220E+01
DAV: 118    -0.357918530982E+04   -0.89964E-01   -0.15900E-01  5632   0.412E-01    0.221E+01
DAV: 119    -0.357842731152E+04    0.75800E+00   -0.12363E+00  6400   0.878E-01    0.208E+01
DAV: 120    -0.357790839956E+04    0.51891E+00   -0.23973E+01  6784   0.199E+00    0.185E+01
DAV: 121    -0.357917667277E+04   -0.12683E+01   -0.19706E+01  6400   0.253E+00    0.207E+01
DAV: 122    -0.357967648960E+04   -0.49982E+00   -0.14513E+00  6144   0.113E+00    0.190E+01
DAV: 123    -0.357961129501E+04    0.65195E-01   -0.31595E+00  6144   0.110E+00    0.171E+01
DAV: 124    -0.358034879488E+04   -0.73750E+00   -0.17823E+00  6272   0.936E-01    0.154E+01
DAV: 125    -0.358032359983E+04    0.25195E-01   -0.15984E+00  6400   0.122E+00    0.140E+01
DAV: 126    -0.358074546088E+04   -0.42186E+00   -0.13443E+01  6656   0.225E+00    0.203E+01
DAV: 127    -0.358021473931E+04    0.53072E+00   -0.71641E+00  6272   0.170E+00    0.186E+01
DAV: 128    -0.358050530220E+04   -0.29056E+00   -0.23563E-01  6016   0.477E-01    0.199E+01
DAV: 129    -0.358047693567E+04    0.28367E-01   -0.35519E-02  6528   0.215E-01    0.193E+01
DAV: 130    -0.358049550181E+04   -0.18566E-01   -0.44417E-03  5888   0.826E-02    0.193E+01
DAV: 131    -0.358062966734E+04   -0.13417E+00   -0.14219E+00  6144   0.118E+00    0.184E+01
DAV: 132    -0.358051838048E+04    0.11129E+00   -0.19267E-01  5760   0.466E-01    0.183E+01
DAV: 133    -0.358045292822E+04    0.65452E-01   -0.24184E-02  6016   0.136E-01    0.182E+01
DAV: 134    -0.358061174151E+04   -0.15881E+00   -0.26917E-01  6400   0.272E-01    0.183E+01
DAV: 135    -0.358073293184E+04   -0.12119E+00   -0.46932E-01  6912   0.267E-01    0.182E+01
DAV: 136    -0.358108984984E+04   -0.35692E+00   -0.66883E-01  6784   0.436E-01    0.181E+01
DAV: 137    -0.358118185190E+04   -0.92002E-01   -0.79082E-02  5888   0.151E-01    0.181E+01
DAV: 138    -0.358112181851E+04    0.60033E-01   -0.33225E-02  5760   0.865E-02    0.181E+01
DAV: 139    -0.358111870051E+04    0.31180E-02   -0.14081E-02  6912   0.481E-02    0.181E+01
DAV: 140    -0.358117364396E+04   -0.54943E-01   -0.61543E-02  6656   0.150E-01    0.181E+01
DAV: 141    -0.358260941217E+04   -0.14358E+01   -0.12051E+01  6784   0.144E+00    0.248E+01
DAV: 142    -0.358271582522E+04   -0.10641E+00   -0.21904E-01  5632   0.372E-01    0.248E+01
DAV: 143    -0.358263555120E+04    0.80274E-01   -0.30586E-02  6400   0.192E-01    0.243E+01
DAV: 144    -0.358246124529E+04    0.17431E+00   -0.42854E-02  5632   0.244E-01    0.246E+01
DAV: 145    -0.358231243034E+04    0.14881E+00   -0.10924E-02  6144   0.120E-01    0.244E+01
DAV: 146    -0.358208391234E+04    0.22852E+00   -0.92957E-01  6272   0.712E-01    0.252E+01
DAV: 147    -0.358127254530E+04    0.81137E+00   -0.15570E+00  6528   0.667E-01    0.247E+01
DAV: 148    -0.358117143808E+04    0.10111E+00   -0.78640E-02  5632   0.201E-01    0.244E+01
DAV: 149    -0.358111590439E+04    0.55534E-01   -0.61274E-02  6784   0.111E-01    0.242E+01
DAV: 150    -0.358110434318E+04    0.11561E-01   -0.25574E-03  5888   0.454E-02    0.242E+01
DAV: 151    -0.358031849653E+04    0.78585E+00   -0.76456E+00  6656   0.120E+00    0.211E+01
DAV: 152    -0.358144720923E+04   -0.11287E+01   -0.76846E-01  6016   0.741E-01    0.232E+01
DAV: 153    -0.358139095985E+04    0.56249E-01   -0.10594E-01  5632   0.295E-01    0.229E+01
DAV: 154    -0.358169891606E+04   -0.30796E+00   -0.14139E-01  6656   0.298E-01    0.222E+01
DAV: 155    -0.358238410962E+04   -0.68519E+00   -0.12232E+00  6144   0.750E-01    0.213E+01
DAV: 156    -0.358337842056E+04   -0.99431E+00   -0.23510E+00  6528   0.969E-01    0.247E+01
DAV: 157    -0.358348057654E+04   -0.10216E+00   -0.91494E-01  6144   0.680E-01    0.211E+01
DAV: 158    -0.358377097060E+04   -0.29039E+00   -0.37567E+00  6400   0.752E-01    0.162E+01
DAV: 159    -0.358517036167E+04   -0.13994E+01   -0.15681E+00  6528   0.107E+00    0.185E+01
DAV: 160    -0.358648584382E+04   -0.13155E+01   -0.37244E+00  6528   0.116E+00    0.243E+01
DAV: 161    -0.358698796938E+04   -0.50213E+00   -0.26037E+01  6784   0.244E+00    0.182E+01
DAV: 162    -0.358647758499E+04    0.51038E+00   -0.92910E-01  5888   0.125E+00    0.167E+01
DAV: 163    -0.358612834851E+04    0.34924E+00   -0.63791E-01  6656   0.957E-01    0.153E+01
DAV: 164    -0.358595694505E+04    0.17140E+00   -0.22772E-01  6272   0.421E-01    0.152E+01
DAV: 165    -0.358655825636E+04   -0.60131E+00   -0.12686E+00  6784   0.539E-01    0.189E+01
DAV: 166    -0.358675387776E+04   -0.19562E+00   -0.25521E+00  6016   0.739E-01    0.196E+01
DAV: 167    -0.358669738124E+04    0.56497E-01   -0.73325E-02  5632   0.287E-01    0.194E+01
DAV: 168    -0.358645638381E+04    0.24100E+00   -0.13922E-01  6656   0.250E-01    0.179E+01
DAV: 169    -0.358648051753E+04   -0.24134E-01   -0.21006E-01  6784   0.202E-01    0.200E+01
DAV: 170    -0.358628937119E+04    0.19115E+00   -0.45794E+00  6528   0.597E-01    0.189E+01
DAV: 171    -0.358552074420E+04    0.76863E+00   -0.40922E+00  6272   0.175E+00    0.126E+01
DAV: 172    -0.358608333026E+04   -0.56259E+00   -0.18266E+00  6272   0.700E-01    0.149E+01
DAV: 173    -0.358607108025E+04    0.12250E-01   -0.46911E-01  6784   0.593E-01    0.152E+01
DAV: 174    -0.358606799189E+04    0.30884E-02   -0.35523E-01  6144   0.350E-01    0.148E+01
DAV: 175    -0.358624658339E+04   -0.17859E+00   -0.16640E-01  6144   0.418E-01    0.146E+01
DAV: 176    -0.358554934758E+04    0.69724E+00   -0.17740E+00  7040   0.196E+00    0.127E+01
DAV: 177    -0.358539352759E+04    0.15582E+00   -0.79959E-01  6272   0.102E+00    0.814E+00
DAV: 178    -0.358538683996E+04    0.66876E-02   -0.22662E+00  6784   0.120E+00    0.107E+01
DAV: 179    -0.358554625444E+04   -0.15941E+00   -0.23389E-01  5888   0.395E-01    0.901E+00
DAV: 180    -0.358564576968E+04   -0.99515E-01   -0.23313E-02  6528   0.145E-01    0.105E+01
DAV: 181    -0.358602926771E+04   -0.38350E+00   -0.86397E-01  6272   0.486E-01    0.757E+00
DAV: 182    -0.358619807478E+04   -0.16881E+00   -0.14155E-01  5760   0.327E-01    0.702E+00
DAV: 183    -0.358606389729E+04    0.13418E+00   -0.48297E-01  5760   0.297E-01    0.692E+00
DAV: 184    -0.358517822928E+04    0.88567E+00   -0.94754E-01  5632   0.448E-01    0.688E+00
DAV: 185    -0.358602445746E+04   -0.84623E+00   -0.64843E-01  6016   0.407E-01    0.620E+00
DAV: 186    -0.358590422780E+04    0.12023E+00   -0.97802E-01  6528   0.653E-01    0.613E+00
DAV: 187    -0.358503885976E+04    0.86537E+00   -0.13354E+00  6016   0.611E-01    0.541E+00
DAV: 188    -0.358464604738E+04    0.39281E+00   -0.34792E-01  6016   0.387E-01    0.542E+00
DAV: 189    -0.358516229680E+04   -0.51625E+00   -0.38876E-01  6400   0.510E-01    0.600E+00
DAV: 190    -0.358549738642E+04   -0.33509E+00   -0.22445E-01  6016   0.412E-01    0.809E+00
DAV: 191    -0.358531415688E+04    0.18323E+00   -0.19218E-01  6272   0.465E-01    0.754E+00
DAV: 192    -0.358592417813E+04   -0.61002E+00   -0.20538E-01  5760   0.312E-01    0.771E+00
DAV: 193    -0.358650696937E+04   -0.58279E+00   -0.65499E-01  6272   0.512E-01    0.876E+00
DAV: 194    -0.358658499175E+04   -0.78022E-01   -0.34283E-01  6528   0.358E-01    0.878E+00
DAV: 195    -0.358652697215E+04    0.58020E-01   -0.39402E-01  6400   0.476E-01    0.801E+00
DAV: 196    -0.358612694363E+04    0.40003E+00   -0.22488E+00  5888   0.113E+00    0.559E+00
DAV: 197    -0.358584370202E+04    0.28324E+00   -0.59373E-01  6016   0.618E-01    0.575E+00
DAV: 198    -0.358429634036E+04    0.15474E+01   -0.13041E+00  6528   0.975E-01    0.876E+00
DAV: 199    -0.358426077630E+04    0.35564E-01   -0.12932E-01  6016   0.287E-01    0.780E+00
DAV: 200    -0.358423388778E+04    0.26889E-01   -0.91660E-02  6528   0.159E-01    0.687E+00
DAV: 201    -0.358498581010E+04   -0.75192E+00   -0.10878E+00  6272   0.850E-01    0.516E+00
DAV: 202    -0.358490958833E+04    0.76222E-01   -0.22477E-01  5760   0.437E-01    0.698E+00
DAV: 203    -0.358527229615E+04   -0.36271E+00   -0.20777E-01  6272   0.325E-01    0.857E+00
DAV: 204    -0.358579788049E+04   -0.52558E+00   -0.23913E-01  6400   0.301E-01    0.773E+00
DAV: 205    -0.358639932689E+04   -0.60145E+00   -0.44305E-01  6144   0.368E-01    0.952E+00
DAV: 206    -0.358649413406E+04   -0.94807E-01   -0.18547E-01  6016   0.380E-01    0.559E+00
DAV: 207    -0.358653352112E+04   -0.39387E-01   -0.38779E-01  5888   0.317E-01    0.978E+00
DAV: 208    -0.358667795610E+04   -0.14443E+00   -0.32103E-01  6016   0.444E-01    0.103E+01
DAV: 209    -0.358666499344E+04    0.12963E-01   -0.43783E-02  5632   0.155E-01    0.103E+01
DAV: 210    -0.358668156426E+04   -0.16571E-01   -0.38752E-02  7168   0.858E-02    0.104E+01
DAV: 211    -0.358661009309E+04    0.71471E-01   -0.12599E+01  6400   0.188E+00    0.761E+00
DAV: 212    -0.358684046420E+04   -0.23037E+00   -0.40675E-01  6144   0.695E-01    0.526E+00
DAV: 213    -0.358690579535E+04   -0.65331E-01   -0.10415E+00  6272   0.652E-01    0.448E+00
DAV: 214    -0.358694238293E+04   -0.36588E-01   -0.64204E-01  6784   0.562E-01    0.410E+00
DAV: 215    -0.358691083683E+04    0.31546E-01   -0.84733E-01  6144   0.672E-01    0.654E+00
DAV: 216    -0.358691885449E+04   -0.80177E-02   -0.20863E-01  6016   0.408E-01    0.715E+00
DAV: 217    -0.358691485014E+04    0.40043E-02   -0.19307E-02  5888   0.132E-01    0.646E+00
DAV: 218    -0.358687985801E+04    0.34992E-01   -0.14276E-01  6016   0.190E-01    0.596E+00
DAV: 219    -0.358682210996E+04    0.57748E-01   -0.25481E-01  6272   0.218E-01    0.475E+00
DAV: 220    -0.358681234363E+04    0.97663E-02   -0.66958E-02  6144   0.173E-01    0.544E+00
DAV: 221    -0.358649880589E+04    0.31354E+00   -0.83507E-01  5760   0.442E-01    0.605E+00
DAV: 222    -0.358637539881E+04    0.12341E+00   -0.50551E-01  6400   0.436E-01    0.348E+00
DAV: 223    -0.358616117446E+04    0.21422E+00   -0.27248E-01  5888   0.350E-01    0.504E+00
DAV: 224    -0.358610379462E+04    0.57380E-01   -0.93073E-02  6784   0.214E-01    0.346E+00
DAV: 225    -0.358609908166E+04    0.47130E-02   -0.20292E-02  6656   0.114E-01    0.406E+00
DAV: 226    -0.358701385070E+04   -0.91477E+00   -0.90450E-01  6400   0.522E-01    0.261E+00
DAV: 227    -0.358705616652E+04   -0.42316E-01   -0.66834E-02  5760   0.188E-01    0.313E+00
DAV: 228    -0.358706024985E+04   -0.40833E-02   -0.20658E-02  6656   0.857E-02    0.323E+00
DAV: 229    -0.358706643293E+04   -0.61831E-02   -0.73518E-02  6400   0.138E-01    0.327E+00
DAV: 230    -0.358706837662E+04   -0.19437E-02   -0.51034E-01  6400   0.358E-01    0.319E+00
DAV: 231    -0.358709702880E+04   -0.28652E-01   -0.28895E-01  6016   0.260E-01    0.299E+00
DAV: 232    -0.358712305881E+04   -0.26030E-01   -0.49398E-02  6272   0.155E-01    0.301E+00
DAV: 233    -0.358711342151E+04    0.96373E-02   -0.78392E-02  6272   0.160E-01    0.277E+00
DAV: 234    -0.358709824921E+04    0.15172E-01   -0.29127E-01  6272   0.257E-01    0.301E+00
DAV: 235    -0.358709004866E+04    0.82006E-02   -0.36055E-01  6272   0.308E-01    0.313E+00
DAV: 236    -0.358706497589E+04    0.25073E-01   -0.41182E-01  6656   0.410E-01    0.205E+00
DAV: 237    -0.358705859442E+04    0.63815E-02   -0.32636E-01  6656   0.364E-01    0.251E+00
DAV: 238    -0.358709076030E+04   -0.32166E-01   -0.62791E-02  6016   0.195E-01    0.265E+00
DAV: 239    -0.358707531621E+04    0.15444E-01   -0.11357E-01  6528   0.219E-01    0.309E+00
DAV: 240    -0.358708281509E+04   -0.74989E-02   -0.23447E-02  6016   0.123E-01    0.311E+00
DAV: 241    -0.358709336742E+04   -0.10552E-01   -0.24519E-02  6272   0.120E-01    0.275E+00
DAV: 242    -0.358709086609E+04    0.25013E-02   -0.25520E-02  5888   0.115E-01    0.289E+00
DAV: 243    -0.358708819978E+04    0.26663E-02   -0.32615E-02  6016   0.105E-01    0.279E+00
DAV: 244    -0.358708664582E+04    0.15540E-02   -0.64860E-02  6144   0.134E-01    0.255E+00
DAV: 245    -0.358709623397E+04   -0.95882E-02   -0.40029E-02  6528   0.934E-02    0.240E+00
DAV: 246    -0.358665115705E+04    0.44508E+00   -0.19495E+00  6528   0.811E-01    0.567E+00
DAV: 247    -0.358666631166E+04   -0.15155E-01   -0.24122E-01  6144   0.302E-01    0.504E+00
DAV: 248    -0.358668051001E+04   -0.14198E-01   -0.20543E-02  5760   0.129E-01    0.519E+00
DAV: 249    -0.358669401037E+04   -0.13500E-01   -0.87435E-03  6400   0.746E-02    0.489E+00
DAV: 250    -0.358674160451E+04   -0.47594E-01   -0.59757E-02  6016   0.165E-01    0.458E+00
DAV: 251    -0.358682575972E+04   -0.84155E-01   -0.11825E+00  6016   0.715E-01    0.585E+00
DAV: 252    -0.358691661195E+04   -0.90852E-01   -0.60986E-02  6016   0.208E-01    0.557E+00
DAV: 253    -0.358692155182E+04   -0.49399E-02   -0.50942E-02  6272   0.139E-01    0.485E+00
DAV: 254    -0.358688358288E+04    0.37969E-01   -0.47899E-02  6016   0.185E-01    0.396E+00
DAV: 255    -0.358690981123E+04   -0.26228E-01   -0.33360E-02  6016   0.172E-01    0.351E+00
DAV: 256    -0.358672052134E+04    0.18929E+00   -0.27431E-01  6144   0.441E-01    0.334E+00
DAV: 257    -0.358668068662E+04    0.39835E-01   -0.37466E-02  6400   0.173E-01    0.391E+00
DAV: 258    -0.358666916527E+04    0.11521E-01   -0.94432E-03  5632   0.887E-02    0.375E+00
DAV: 259    -0.358663878913E+04    0.30376E-01   -0.41188E-03  6528   0.472E-02    0.380E+00
DAV: 260    -0.358675564143E+04   -0.11685E+00   -0.39644E-02  6144   0.164E-01    0.390E+00
DAV: 261    -0.358696651389E+04   -0.21087E+00   -0.29288E-01  6400   0.270E-01    0.616E+00
DAV: 262    -0.358695711767E+04    0.93962E-02   -0.20325E-02  5632   0.154E-01    0.589E+00
DAV: 263    -0.358700449611E+04   -0.47378E-01   -0.84790E-03  6400   0.973E-02    0.626E+00
DAV: 264    -0.358708074663E+04   -0.76251E-01   -0.18019E-02  6272   0.153E-01    0.669E+00
DAV: 265    -0.358712726166E+04   -0.46515E-01   -0.26178E-02  6400   0.160E-01    0.739E+00
DAV: 266    -0.358715775012E+04   -0.30488E-01   -0.47924E-02  6144   0.176E-01    0.843E+00
DAV: 267    -0.358714519366E+04    0.12556E-01   -0.65684E-03  5632   0.772E-02    0.838E+00
DAV: 268    -0.358714256861E+04    0.26251E-02   -0.12654E-03  6272   0.281E-02    0.835E+00
DAV: 269    -0.358714212713E+04    0.44148E-03   -0.12153E-04  6016   0.701E-03    0.833E+00
DAV: 270    -0.358714038097E+04    0.17462E-02   -0.68392E-02  6144   0.121E-01    0.819E+00
DAV: 271    -0.358713557508E+04    0.48059E-02   -0.79794E-02  6272   0.119E-01    0.797E+00
DAV: 272    -0.358713326559E+04    0.23095E-02   -0.16868E-02  5760   0.980E-02    0.771E+00
DAV: 273    -0.358711840034E+04    0.14865E-01   -0.51645E-02  6400   0.125E-01    0.649E+00
DAV: 274    -0.358709861131E+04    0.19789E-01   -0.26703E-01  6272   0.231E-01    0.441E+00
DAV: 275    -0.358710440527E+04   -0.57940E-02   -0.12967E-01  6144   0.208E-01    0.354E+00
DAV: 276    -0.358709864313E+04    0.57621E-02   -0.25600E-01  6400   0.219E-01    0.432E+00
DAV: 277    -0.358708992696E+04    0.87162E-02   -0.11032E-01  6272   0.139E-01    0.399E+00
DAV: 278    -0.358710507580E+04   -0.15149E-01   -0.21188E-02  5760   0.112E-01    0.395E+00
DAV: 279    -0.358709234947E+04    0.12726E-01   -0.76015E-02  6272   0.135E-01    0.365E+00
DAV: 280    -0.358704863259E+04    0.43717E-01   -0.35309E-01  6272   0.260E-01    0.312E+00
DAV: 281    -0.358708973980E+04   -0.41107E-01   -0.46909E-02  6272   0.190E-01    0.215E+00
DAV: 282    -0.358709903363E+04   -0.92938E-02   -0.62598E-02  6272   0.133E-01    0.224E+00
DAV: 283    -0.358711419860E+04   -0.15165E-01   -0.16226E-01  6272   0.184E-01    0.138E+00
DAV: 284    -0.358714895189E+04   -0.34753E-01   -0.28355E-02  5888   0.146E-01    0.114E+00
DAV: 285    -0.358716739925E+04   -0.18447E-01   -0.53856E-02  6016   0.140E-01    0.976E-01
DAV: 286    -0.358718547974E+04   -0.18080E-01   -0.50642E-02  6272   0.153E-01    0.767E-01
DAV: 287    -0.358718815868E+04   -0.26789E-02   -0.25992E-02  6272   0.114E-01    0.955E-01
DAV: 288    -0.358719036475E+04   -0.22061E-02   -0.92480E-03  6144   0.545E-02    0.112E+00
DAV: 289    -0.358718989772E+04    0.46702E-03   -0.64686E-04  5632   0.323E-02    0.118E+00
DAV: 290    -0.358719199204E+04   -0.20943E-02   -0.27488E-02  6400   0.919E-02    0.152E+00
DAV: 291    -0.358718936648E+04    0.26256E-02   -0.19741E-01  6656   0.214E-01    0.121E+00
DAV: 292    -0.358719882755E+04   -0.94611E-02   -0.25710E-02  5888   0.115E-01    0.115E+00
DAV: 293    -0.358720127474E+04   -0.24472E-02   -0.12439E-02  5888   0.638E-02    0.137E+00
DAV: 294    -0.358720198910E+04   -0.71436E-03   -0.23144E-02  6400   0.621E-02    0.143E+00
DAV: 295    -0.358720423121E+04   -0.22421E-02   -0.11438E-02  6400   0.497E-02    0.145E+00
DAV: 296    -0.358720550721E+04   -0.12760E-02   -0.17992E-02  6528   0.681E-02    0.136E+00
DAV: 297    -0.358720777228E+04   -0.22651E-02   -0.20369E-02  6400   0.620E-02    0.138E+00
DAV: 298    -0.358720951855E+04   -0.17463E-02   -0.36901E-03  6400   0.335E-02    0.139E+00
DAV: 299    -0.358720895799E+04    0.56056E-03   -0.15604E-02  6272   0.727E-02    0.141E+00
DAV: 300    -0.358720654208E+04    0.24159E-02   -0.30029E-02  6656   0.704E-02    0.142E+00
DAV: 301    -0.358720632385E+04    0.21823E-03   -0.15291E-02  6400   0.443E-02    0.141E+00
DAV: 302    -0.358720671870E+04   -0.39486E-03   -0.15116E-03  5760   0.283E-02    0.140E+00
DAV: 303    -0.358720611955E+04    0.59915E-03   -0.27535E-03  6528   0.198E-02    0.141E+00
DAV: 304    -0.358720559131E+04    0.52824E-03   -0.22884E-03  6784   0.174E-02    0.141E+00
DAV: 305    -0.358720440827E+04    0.11830E-02   -0.14021E-02  6528   0.570E-02    0.140E+00
DAV: 306    -0.358719632657E+04    0.80817E-02   -0.78994E-02  6400   0.131E-01    0.120E+00
DAV: 307    -0.358720133041E+04   -0.50038E-02   -0.34117E-03  5632   0.599E-02    0.121E+00
DAV: 308    -0.358720172898E+04   -0.39857E-03   -0.50150E-04  6016   0.190E-02    0.121E+00
DAV: 309    -0.358720173913E+04   -0.10145E-04   -0.91877E-03  6400   0.456E-02    0.121E+00
DAV: 310    -0.358720259684E+04   -0.85772E-03   -0.35401E-02  6528   0.782E-02    0.121E+00
DAV: 311    -0.358720090682E+04    0.16900E-02   -0.13459E-01  6400   0.156E-01    0.132E+00
DAV: 312    -0.358720804366E+04   -0.71368E-02   -0.17036E-02  5760   0.102E-01    0.136E+00
DAV: 313    -0.358720748916E+04    0.55450E-03   -0.41611E-03  6272   0.324E-02    0.137E+00
DAV: 314    -0.358720715206E+04    0.33710E-03   -0.18565E-03  6656   0.153E-02    0.138E+00
DAV: 315    -0.358720613100E+04    0.10211E-02   -0.15745E-02  6400   0.533E-02    0.143E+00
DAV: 316    -0.358720321846E+04    0.29125E-02   -0.17227E-02  6656   0.648E-02    0.138E+00
DAV: 317    -0.358720361544E+04   -0.39698E-03   -0.35772E-02  6528   0.957E-02    0.144E+00
DAV: 318    -0.358720304873E+04    0.56671E-03   -0.25875E-02  6656   0.801E-02    0.134E+00
DAV: 319    -0.358720157443E+04    0.14743E-02   -0.95357E-02  6528   0.132E-01    0.105E+00
DAV: 320    -0.358720640453E+04   -0.48301E-02   -0.86854E-02  6400   0.127E-01    0.136E+00
DAV: 321    -0.358720903698E+04   -0.26325E-02   -0.77822E-02  6272   0.110E-01    0.130E+00
DAV: 322    -0.358721295450E+04   -0.39175E-02   -0.30362E-02  6272   0.826E-02    0.134E+00
DAV: 323    -0.358721487112E+04   -0.19166E-02   -0.22226E-03  5632   0.406E-02    0.134E+00
DAV: 324    -0.358721460544E+04    0.26568E-03   -0.54287E-03  6272   0.306E-02    0.134E+00
DAV: 325    -0.358721481402E+04   -0.20857E-03   -0.37141E-04  5888   0.134E-02    0.133E+00
DAV: 326    -0.358721242487E+04    0.23891E-02   -0.85250E-03  6400   0.512E-02    0.105E+00
DAV: 327    -0.358721465039E+04   -0.22255E-02   -0.28134E-02  6272   0.818E-02    0.932E-01
DAV: 328    -0.358721410608E+04    0.54431E-03   -0.11677E-01  6528   0.124E-01    0.943E-01
DAV: 329    -0.358721557906E+04   -0.14730E-02   -0.94966E-02  6528   0.106E-01    0.961E-01
DAV: 330    -0.358721826211E+04   -0.26831E-02   -0.24739E-02  6144   0.736E-02    0.703E-01
DAV: 331    -0.358721775065E+04    0.51147E-03   -0.34783E-02  6528   0.837E-02    0.293E-01
DAV: 332    -0.358722051031E+04   -0.27597E-02   -0.14180E-02  6144   0.752E-02    0.241E-01
DAV: 333    -0.358722058145E+04   -0.71141E-04   -0.53838E-03  6528   0.270E-02    0.214E-01
DAV: 334    -0.358721896416E+04    0.16173E-02   -0.38640E-02  6272   0.820E-02    0.702E-01
DAV: 335    -0.358721959453E+04   -0.63037E-03   -0.13251E-02  6272   0.752E-02    0.543E-01
DAV: 336    -0.358722081727E+04   -0.12227E-02   -0.27024E-03  6144   0.392E-02    0.741E-01
DAV: 337    -0.358721882124E+04    0.19960E-02   -0.45293E-02  6400   0.865E-02    0.886E-01
DAV: 338    -0.358721926393E+04   -0.44269E-03   -0.15400E-02  6528   0.678E-02    0.828E-01
DAV: 339    -0.358721983046E+04   -0.56653E-03   -0.37925E-03  6400   0.314E-02    0.769E-01
DAV: 340    -0.358721948513E+04    0.34533E-03   -0.10191E-02  6528   0.368E-02    0.788E-01
DAV: 341    -0.358721802004E+04    0.14651E-02   -0.19688E-02  6400   0.570E-02    0.810E-01
DAV: 342    -0.358721914229E+04   -0.11223E-02   -0.41743E-03  6400   0.312E-02    0.823E-01
DAV: 343    -0.358721946112E+04   -0.31882E-03   -0.27217E-04  5632   0.150E-02    0.821E-01
DAV: 344    -0.358721954503E+04   -0.83909E-04   -0.19401E-05  5632   0.519E-03    0.822E-01
DAV: 345    -0.358721955197E+04   -0.69449E-05   -0.12521E-05  6272   0.218E-03    0.822E-01
DAV: 346    -0.358721964210E+04   -0.90133E-04   -0.68176E-03  6272   0.332E-02    0.800E-01
DAV: 347    -0.358721942866E+04    0.21345E-03   -0.84746E-04  6144   0.208E-02    0.779E-01
DAV: 348    -0.358721965499E+04   -0.22633E-03   -0.44737E-04  6272   0.129E-02    0.801E-01
DAV: 349    -0.358721952023E+04    0.13476E-03   -0.35580E-03  6528   0.311E-02    0.763E-01
DAV: 350    -0.358721989942E+04   -0.37919E-03   -0.45194E-03  6656   0.280E-02    0.738E-01
DAV: 351    -0.358721177553E+04    0.81239E-02   -0.15580E-01  6272   0.195E-01    0.711E-01
DAV: 352    -0.358721994410E+04   -0.81686E-02   -0.56128E-03  5376   0.846E-02    0.632E-01
DAV: 353    -0.358722033429E+04   -0.39018E-03   -0.16991E-03  6144   0.251E-02    0.592E-01
DAV: 354    -0.358721910904E+04    0.12252E-02   -0.28889E-02  6272   0.671E-02    0.484E-01
DAV: 355    -0.358721988299E+04   -0.77395E-03   -0.23362E-02  6400   0.695E-02    0.699E-01
DAV: 356    -0.358722026935E+04   -0.38636E-03   -0.16613E-02  6400   0.617E-02    0.503E-01
DAV: 357    -0.358722094822E+04   -0.67887E-03   -0.67695E-03  6144   0.538E-02    0.517E-01
DAV: 358    -0.358722149141E+04   -0.54318E-03   -0.25224E-02  6016   0.658E-02    0.351E-01
DAV: 359    -0.358722299255E+04   -0.15011E-02   -0.18679E-02  6400   0.463E-02    0.940E-01
DAV: 360    -0.358722254659E+04    0.44596E-03   -0.12412E-03  5504   0.400E-02    0.955E-01
DAV: 361    -0.358722309882E+04   -0.55223E-03   -0.19508E-03  6656   0.212E-02    0.122E+00
DAV: 362    -0.358722206005E+04    0.10388E-02   -0.66610E-04  6400   0.161E-02    0.117E+00
DAV: 363    -0.358722211643E+04   -0.56382E-04   -0.94857E-03  6400   0.362E-02    0.113E+00
DAV: 364    -0.358722215822E+04   -0.41793E-04   -0.68016E-03  6656   0.309E-02    0.705E-01
DAV: 365    -0.358722291104E+04   -0.75282E-03   -0.46477E-02  6272   0.752E-02    0.582E-01
DAV: 366    -0.358722199001E+04    0.92103E-03   -0.10120E-01  6400   0.103E-01    0.411E-01
DAV: 367    -0.358722662758E+04   -0.46376E-02   -0.95666E-03  5632   0.597E-02    0.241E-01
DAV: 368    -0.358722784411E+04   -0.12165E-02   -0.91820E-04  5760   0.266E-02    0.235E-01
DAV: 369    -0.358722814901E+04   -0.30490E-03   -0.13678E-03  6784   0.173E-02    0.219E-01
DAV: 370    -0.358722779993E+04    0.34908E-03   -0.15924E-02  6400   0.566E-02    0.267E-01
DAV: 371    -0.358722766740E+04    0.13253E-03   -0.16935E-02  6528   0.514E-02    0.361E-01
DAV: 372    -0.358722883698E+04   -0.11696E-02   -0.11781E-03  5760   0.338E-02    0.361E-01
DAV: 373    -0.358722879830E+04    0.38675E-04   -0.19173E-04  6016   0.106E-02    0.371E-01
DAV: 374    -0.358722887651E+04   -0.78206E-04   -0.15924E-04  6016   0.807E-03    0.373E-01
DAV: 375    -0.358722858023E+04    0.29628E-03   -0.98009E-03  6528   0.528E-02    0.447E-01
DAV: 376    -0.358722804539E+04    0.53483E-03   -0.12614E-02  6656   0.443E-02    0.444E-01
DAV: 377    -0.358722889828E+04   -0.85289E-03   -0.16880E-03  5632   0.401E-02    0.560E-01
DAV: 378    -0.358722875320E+04    0.14508E-03   -0.68618E-04  6272   0.163E-02    0.547E-01
DAV: 379    -0.358722860449E+04    0.14871E-03   -0.25496E-03  6528   0.293E-02    0.268E-01
DAV: 380    -0.358722939428E+04   -0.78978E-03   -0.37733E-03  6272   0.318E-02    0.244E-01
DAV: 381    -0.358722978702E+04   -0.39274E-03   -0.38217E-03  6272   0.307E-02    0.179E-01
DAV: 382    -0.358722985901E+04   -0.71996E-04   -0.12985E-03  6400   0.189E-02    0.193E-01
DAV: 383    -0.358722896736E+04    0.89166E-03   -0.12550E-02  6272   0.376E-02    0.328E-01
DAV: 384    -0.358722941124E+04   -0.44388E-03   -0.39257E-04  5632   0.217E-02    0.322E-01
DAV: 385    -0.358722913492E+04    0.27632E-03   -0.21726E-03  6272   0.165E-02    0.348E-01
DAV: 386    -0.358722788109E+04    0.12538E-02   -0.30463E-02  6272   0.574E-02    0.301E-01
DAV: 387    -0.358722930096E+04   -0.14199E-02   -0.89486E-03  6016   0.572E-02    0.336E-01
DAV: 388    -0.358722979479E+04   -0.49383E-03   -0.44933E-03  6144   0.281E-02    0.425E-01
DAV: 389    -0.358722977985E+04    0.14946E-04   -0.12105E-03  6656   0.147E-02    0.412E-01
DAV: 390    -0.358722957058E+04    0.20927E-03   -0.53230E-03  6144   0.208E-02    0.376E-01
DAV: 391    -0.358722974418E+04   -0.17361E-03   -0.53267E-03  6400   0.332E-02    0.459E-01
DAV: 392    -0.358723010948E+04   -0.36530E-03   -0.17786E-03  5888   0.294E-02    0.372E-01
DAV: 393    -0.358723002243E+04    0.87049E-04   -0.54025E-04  6528   0.921E-03    0.353E-01
DAV: 394    -0.358723004363E+04   -0.21199E-04   -0.17409E-05  5632   0.503E-03    0.353E-01
DAV: 395    -0.358723004016E+04    0.34682E-05   -0.73303E-07  5376   0.982E-04    0.351E-01
DAV: 396    -0.358722716435E+04    0.28758E-02   -0.56796E-02  6400   0.839E-02    0.232E-01
DAV: 397    -0.358722893107E+04   -0.17667E-02   -0.68562E-03  6400   0.547E-02    0.333E-01
DAV: 398    -0.358722892336E+04    0.77070E-05   -0.79497E-04  5888   0.212E-02    0.430E-01
DAV: 399    -0.358722874354E+04    0.17981E-03   -0.78771E-04  6272   0.147E-02    0.451E-01
DAV: 400    -0.358722879323E+04   -0.49683E-04   -0.27304E-03  6400   0.271E-02    0.323E-01
DAV: 401    -0.358722865804E+04    0.13519E-03   -0.27007E-02  6400   0.592E-02    0.457E-01
DAV: 402    -0.358722971554E+04   -0.10575E-02   -0.10021E-03  5632   0.260E-02    0.409E-01
DAV: 403    -0.358722989934E+04   -0.18380E-03   -0.57772E-03  6400   0.381E-02    0.228E-01
DAV: 404    -0.358722959051E+04    0.30883E-03   -0.25776E-02  6400   0.596E-02    0.196E-01
DAV: 405    -0.358722997116E+04   -0.38065E-03   -0.13977E-02  6400   0.348E-02    0.254E-01
DAV: 406    -0.358722997673E+04   -0.55693E-05   -0.34194E-03  6528   0.408E-02    0.261E-01
DAV: 407    -0.358723022805E+04   -0.25132E-03   -0.12120E-04  5632   0.134E-02    0.258E-01
DAV: 408    -0.358723025099E+04   -0.22948E-04   -0.10816E-03  6400   0.160E-02    0.307E-01
DAV: 409    -0.358723025555E+04   -0.45506E-05   -0.73169E-05  6272   0.730E-03    0.320E-01
DAV: 410    -0.358723010447E+04    0.15108E-03   -0.41034E-03  6400   0.269E-02    0.360E-01
DAV: 411    -0.358723028890E+04   -0.18444E-03   -0.46554E-03  6144   0.312E-02    0.335E-01
DAV: 412    -0.358723077391E+04   -0.48501E-03   -0.17466E-03  6528   0.190E-02    0.309E-01
DAV: 413    -0.358723098779E+04   -0.21388E-03   -0.16296E-04  5888   0.113E-02    0.318E-01
DAV: 414    -0.358723096536E+04    0.22433E-04   -0.96860E-04  6528   0.140E-02    0.340E-01
DAV: 415    -0.358723079626E+04    0.16910E-03   -0.10600E-03  6528   0.138E-02    0.368E-01
DAV: 416    -0.358722860395E+04    0.21923E-02   -0.17074E-02  6400   0.702E-02    0.344E-01
DAV: 417    -0.358722992496E+04   -0.13210E-02   -0.51902E-04  5632   0.287E-02    0.344E-01
DAV: 418    -0.358722841489E+04    0.15101E-02   -0.12430E-02  6400   0.517E-02    0.391E-01
DAV: 419    -0.358722542411E+04    0.29908E-02   -0.28289E-02  6400   0.781E-02    0.402E-01
DAV: 420    -0.358722635711E+04   -0.93300E-03   -0.73104E-03  6656   0.408E-02    0.400E-01
DAV: 421    -0.358722758909E+04   -0.12320E-02   -0.14014E-02  6144   0.763E-02    0.329E-01
DAV: 422    -0.358722741042E+04    0.17866E-03   -0.36007E-02  6016   0.746E-02    0.412E-01
DAV: 423    -0.358722738427E+04    0.26152E-04   -0.16975E-02  6400   0.422E-02    0.446E-01
DAV: 424    -0.358722704884E+04    0.33544E-03   -0.23629E-02  6656   0.455E-02    0.481E-01
DAV: 425    -0.358722805851E+04   -0.10097E-02   -0.30510E-03  6272   0.300E-02    0.470E-01
DAV: 426    -0.358721936565E+04    0.86929E-02   -0.32801E-01  5760   0.200E-01    0.849E-01
DAV: 427    -0.358722937025E+04   -0.10005E-01   -0.17084E-02  5120   0.108E-01    0.627E-01
DAV: 428    -0.358723063349E+04   -0.12632E-02   -0.32088E-03  5888   0.353E-02    0.594E-01
DAV: 429    -0.358723082514E+04   -0.19166E-03   -0.11533E-03  5888   0.308E-02    0.600E-01
DAV: 430    -0.358723062770E+04    0.19745E-03   -0.44084E-04  6784   0.923E-03    0.607E-01
DAV: 431    -0.358723077167E+04   -0.14397E-03   -0.88557E-03  6016   0.556E-02    0.540E-01
DAV: 432    -0.358722926427E+04    0.15074E-02   -0.41964E-02  6016   0.976E-02    0.514E-01
DAV: 433    -0.358722758051E+04    0.16838E-02   -0.76770E-02  6400   0.120E-01    0.388E-01
DAV: 434    -0.358723286242E+04   -0.52819E-02   -0.20311E-02  6144   0.699E-02    0.391E-01
DAV: 435    -0.358723595397E+04   -0.30916E-02   -0.18985E-03  5632   0.420E-02    0.382E-01
DAV: 436    -0.358719275215E+04    0.43202E-01   -0.65666E-01  5888   0.408E-01    0.310E-01
DAV: 437    -0.358722879204E+04   -0.36040E-01   -0.22902E-02  5120   0.159E-01    0.201E-01
DAV: 438    -0.358722966762E+04   -0.87558E-03   -0.17267E-02  6400   0.518E-02    0.230E-01
DAV: 439    -0.358723049396E+04   -0.82634E-03   -0.17898E-02  6272   0.494E-02    0.313E-01
DAV: 440    -0.358722969988E+04    0.79408E-03   -0.50769E-02  6272   0.748E-02    0.397E-01
DAV: 441    -0.358722896045E+04    0.73943E-03   -0.69171E-02  6400   0.725E-02    0.362E-01
DAV: 442    -0.358722927938E+04   -0.31894E-03   -0.74282E-02  6528   0.723E-02    0.418E-01
DAV: 443    -0.358723342198E+04   -0.41426E-02   -0.11153E-02  5248   0.665E-02    0.411E-01
DAV: 444    -0.358723457515E+04   -0.11532E-02   -0.70613E-03  6400   0.408E-02    0.402E-01
DAV: 445    -0.358723550820E+04   -0.93305E-03   -0.95078E-04  5632   0.333E-02    0.399E-01
DAV: 446    -0.358723107626E+04    0.44319E-02   -0.53040E-02  5760   0.123E-01    0.414E-01
DAV: 447    -0.358723371163E+04   -0.26354E-02   -0.63546E-03  5760   0.641E-02    0.393E-01
DAV: 448    -0.358723325772E+04    0.45391E-03   -0.72964E-03  5888   0.459E-02    0.390E-01
DAV: 449    -0.358723356092E+04   -0.30320E-03   -0.39829E-04  5504   0.211E-02    0.389E-01
DAV: 450    -0.358723328120E+04    0.27972E-03   -0.24020E-03  6016   0.204E-02    0.393E-01
DAV: 451    -0.358722725724E+04    0.60240E-02   -0.43622E-02  6656   0.132E-01    0.672E-01
DAV: 452    -0.358723041959E+04   -0.31624E-02   -0.30942E-02  6272   0.910E-02    0.635E-01
DAV: 453    -0.358723187899E+04   -0.14594E-02   -0.25915E-03  5376   0.392E-02    0.672E-01
DAV: 454    -0.358723185811E+04    0.20880E-04   -0.73026E-04  6272   0.149E-02    0.653E-01
DAV: 455    -0.358723184704E+04    0.11068E-04   -0.75233E-05  5504   0.700E-03    0.652E-01
DAV: 456    -0.358723072749E+04    0.11196E-02   -0.59529E-02  5760   0.930E-02    0.752E-01
DAV: 457    -0.358723280685E+04   -0.20794E-02   -0.13984E-03  5120   0.407E-02    0.748E-01
DAV: 458    -0.358723274034E+04    0.66512E-04   -0.42995E-04  6144   0.145E-02    0.753E-01
DAV: 459    -0.358723283517E+04   -0.94831E-04   -0.81849E-05  5632   0.862E-03    0.742E-01
DAV: 460    -0.358723284726E+04   -0.12096E-04   -0.28669E-05  6400   0.339E-03    0.748E-01
DAV: 461    -0.358723269822E+04    0.14904E-03   -0.87443E-03  6400   0.502E-02    0.551E-01
DAV: 462    -0.358723187871E+04    0.81951E-03   -0.16567E-02  6144   0.802E-02    0.679E-01
DAV: 463    -0.358723174859E+04    0.13012E-03   -0.41198E-03  6656   0.324E-02    0.705E-01
DAV: 464    -0.358722922961E+04    0.25190E-02   -0.21307E-02  6400   0.658E-02    0.671E-01
DAV: 465    -0.358722930456E+04   -0.74954E-04   -0.11717E-02  6144   0.456E-02    0.659E-01
DAV: 466    -0.358722929180E+04    0.12764E-04   -0.69060E-02  5888   0.148E-01    0.433E-01
DAV: 467    -0.358723095611E+04   -0.16643E-02   -0.39502E-02  5888   0.127E-01    0.448E-01
DAV: 468    -0.358723026279E+04    0.69332E-03   -0.15624E-02  7040   0.472E-02    0.441E-01
DAV: 469    -0.358722992317E+04    0.33963E-03   -0.10552E-02  6400   0.384E-02    0.440E-01
DAV: 470    -0.358722853900E+04    0.13842E-02   -0.33554E-02  6400   0.584E-02    0.452E-01
DAV: 471    -0.358723131547E+04   -0.27765E-02   -0.41940E-02  6144   0.844E-02    0.498E-01
DAV: 472    -0.358723100166E+04    0.31381E-03   -0.90811E-03  6400   0.485E-02    0.510E-01
DAV: 473    -0.358723145779E+04   -0.45613E-03   -0.18687E-03  6016   0.350E-02    0.506E-01
DAV: 474    -0.358723148055E+04   -0.22755E-04   -0.11847E-04  6272   0.748E-03    0.538E-01
DAV: 475    -0.358723148156E+04   -0.10107E-05   -0.11974E-04  6656   0.608E-03    0.566E-01
DAV: 476    -0.358723120118E+04    0.28038E-03   -0.36079E-03  6400   0.234E-02    0.556E-01
DAV: 477    -0.358723129824E+04   -0.97055E-04   -0.78991E-05  5632   0.106E-02    0.556E-01
DAV: 478    -0.358723125170E+04    0.46537E-04   -0.14021E-04  6400   0.498E-03    0.559E-01
DAV: 479    -0.358723122546E+04    0.26239E-04   -0.11338E-05  6016   0.220E-03    0.558E-01
DAV: 480    -0.358723123697E+04   -0.11506E-04   -0.41347E-03  6272   0.221E-02    0.507E-01
DAV: 481    -0.358722038139E+04    0.10856E-01   -0.31594E-01  6400   0.180E-01    0.404E-01
DAV: 482    -0.358722807691E+04   -0.76955E-02   -0.23413E-02  5888   0.776E-02    0.340E-01
DAV: 483    -0.358722923226E+04   -0.11554E-02   -0.47994E-03  6272   0.382E-02    0.321E-01
DAV: 484    -0.358723024796E+04   -0.10157E-02   -0.15636E-02  6144   0.606E-02    0.637E-01
DAV: 485    -0.358723010627E+04    0.14168E-03   -0.66206E-03  6656   0.355E-02    0.424E-01
DAV: 486    -0.358722875239E+04    0.13539E-02   -0.64615E-02  6144   0.128E-01    0.289E-01
DAV: 487    -0.358723035786E+04   -0.16055E-02   -0.61027E-02  6144   0.103E-01    0.619E-01
DAV: 488    -0.358722968169E+04    0.67617E-03   -0.86391E-02  6272   0.968E-02    0.640E-01
DAV: 489    -0.358723472856E+04   -0.50469E-02   -0.91752E-03  5632   0.622E-02    0.601E-01
DAV: 490    -0.358723574938E+04   -0.10208E-02   -0.93668E-03  6400   0.359E-02    0.604E-01
DAV: 491    -0.358722633247E+04    0.94169E-02   -0.18349E-01  5888   0.198E-01    0.848E-01
DAV: 492    -0.358723878277E+04   -0.12450E-01   -0.17094E-02  5248   0.119E-01    0.876E-01
DAV: 493    -0.358723837897E+04    0.40380E-03   -0.16124E-02  6144   0.632E-02    0.900E-01
DAV: 494    -0.358723924333E+04   -0.86436E-03   -0.64972E-04  5504   0.267E-02    0.873E-01
DAV: 495    -0.358723941563E+04   -0.17230E-03   -0.41517E-05  5760   0.896E-03    0.873E-01
DAV: 496    -0.358723859767E+04    0.81796E-03   -0.27429E-02  5888   0.604E-02    0.959E-01
DAV: 497    -0.358723941652E+04   -0.81884E-03   -0.26995E-03  5504   0.358E-02    0.958E-01
DAV: 498    -0.358723935166E+04    0.64853E-04   -0.59971E-05  5632   0.778E-03    0.953E-01
DAV: 499    -0.358723927776E+04    0.73903E-04   -0.19329E-04  6144   0.669E-03    0.945E-01
DAV: 500    -0.358723890043E+04    0.37733E-03   -0.32344E-03  6016   0.230E-02
 -----------------------------------------------------------------------------
|                                                                             |
|           W    W    AA    RRRRR   N    N  II  N    N   GGGG   !!!           |
|           W    W   A  A   R    R  NN   N  II  NN   N  G    G  !!!           |
|           W    W  A    A  R    R  N N  N  II  N N  N  G       !!!           |
|           W WW W  AAAAAA  RRRRR   N  N N  II  N  N N  G  GGG   !            |
|           WW  WW  A    A  R   R   N   NN  II  N   NN  G    G                |
|           W    W  A    A  R    R  N    N  II  N    N   GGGG   !!!           |
|                                                                             |
|     The electronic self-consistency was not achieved in the given           |
|     number of steps (NELM). The forces and other quantities evaluated       |
|     might not be reliable so examine the results carefully. If you find     |
|     spurious results, we suggest increasing NELM, if you were close to      |
|     convergence or switching to a different ALGO or adjusting the           |
|     density mixing parameters otherwise.                                    |
|                                                                             |
 -----------------------------------------------------------------------------

 augmentation electrons   1804.87548863345     
 soft         electrons  0.000000000000000E+000
 total        electrons   1804.87548863345     
 augmentation electrons -3.804788527301108E-002
 soft         electrons  0.000000000000000E+000
 total        electrons -3.804788527301108E-002
 augmentation electrons   1897.59959528426     
 soft         electrons  0.000000000000000E+000
 total        electrons   1897.59959528426     
 augmentation electrons   1840.97656334226     
 soft         electrons  0.000000000000000E+000
 total        electrons   1840.97656334226     
 augmentation electrons   56.1447640755264     
 soft         electrons   1748.73063599008     
 total        electrons   1804.87540006561     
 augmentation electrons   17.3318729932725     
 soft         electrons   1748.73063599008     
 total        electrons   28.6911044432330     
 translations:           0           1           0
   1 F= -.36248569E+04 E0= -.36248412E+04  d E =-.362486E+04  mag=    28.7292
 curvature:   0.00 expect dE= 0.000E+00 dE for cont linesearch  0.000E+00
 trial: gam= 0.00000 g(F)=  0.244E+00 g(S)=  0.000E+00 ort = 0.000E+00 (trialstep = 0.100E+01)
 search vector abs. value=  0.244E+00
 bond charge predicted
       N       E                     dE             d eps       ncg     rms          rms(c)
DAV:   1    -0.358821369858E+04   -0.97442E+00   -0.29116E+01  7040   0.498E+00    0.109E+01
DAV:   2    -0.359266408020E+04   -0.44504E+01   -0.53040E+01  6784   0.485E+00    0.391E+01
DAV:   3    -0.358790674465E+04    0.47573E+01   -0.93123E+01  5888   0.289E+00    0.108E+01
DAV:   4    -0.358856199083E+04   -0.65525E+00   -0.90949E-01  6016   0.831E-01    0.895E+00
DAV:   5    -0.358897518345E+04   -0.41319E+00   -0.80884E-01  6528   0.738E-01    0.910E+00
DAV:   6    -0.358852965979E+04    0.44552E+00   -0.44804E-01  6272   0.847E-01    0.561E+00
DAV:   7    -0.358868349879E+04   -0.15384E+00   -0.68210E-02  5888   0.269E-01    0.669E+00
DAV:   8    -0.358879360982E+04   -0.11011E+00   -0.30725E-02  6016   0.237E-01    0.606E+00
DAV:   9    -0.358875692227E+04    0.36688E-01   -0.94841E-03  6016   0.114E-01    0.663E+00
DAV:  10    -0.358887596414E+04   -0.11904E+00   -0.24056E-02  6656   0.294E-01    0.502E+00
DAV:  11    -0.358902404652E+04   -0.14808E+00   -0.48301E-02  6528   0.459E-01    0.396E+00
DAV:  12    -0.358919525010E+04   -0.17120E+00   -0.56083E-02  6656   0.517E-01    0.741E+00
DAV:  13    -0.358915522763E+04    0.40022E-01   -0.44264E-02  5632   0.205E-01    0.711E+00
DAV:  14    -0.358914216853E+04    0.13059E-01   -0.14586E-03  6272   0.360E-02    0.709E+00
DAV:  15    -0.358913918905E+04    0.29795E-02   -0.50938E-05  6528   0.697E-03    0.709E+00
DAV:  16    -0.358914505413E+04   -0.58651E-02   -0.29521E-05  6144   0.108E-02    0.712E+00
DAV:  17    -0.358914551917E+04   -0.46505E-03   -0.23740E-05  6016   0.501E-03    0.717E+00
DAV:  18    -0.358911813958E+04    0.27380E-01   -0.15006E-03  5760   0.756E-02    0.604E+00
DAV:  19    -0.358910257163E+04    0.15568E-01   -0.23060E-02  6016   0.268E-01    0.146E+00
DAV:  20    -0.358916845937E+04   -0.65888E-01   -0.25328E-02  6016   0.188E-01    0.173E+00
DAV:  21    -0.358916563202E+04    0.28273E-02   -0.40975E-03  5888   0.805E-02    0.131E+00
DAV:  22    -0.358917087226E+04   -0.52402E-02   -0.53010E-03  5760   0.745E-02    0.174E+00
DAV:  23    -0.358916956287E+04    0.13094E-02   -0.49103E-03  6016   0.896E-02    0.138E+00
DAV:  24    -0.358917313871E+04   -0.35758E-02   -0.48244E-03  6400   0.826E-02    0.127E+00
DAV:  25    -0.358917643458E+04   -0.32959E-02   -0.55487E-03  6016   0.619E-02    0.137E+00
DAV:  26    -0.358917707589E+04   -0.64131E-03   -0.14063E-02  6144   0.109E-01    0.129E+00
DAV:  27    -0.358917887568E+04   -0.17998E-02   -0.72671E-03  6528   0.484E-02    0.129E+00
DAV:  28    -0.358917957108E+04   -0.69540E-03   -0.76040E-03  6656   0.393E-02    0.131E+00
DAV:  29    -0.358918056541E+04   -0.99433E-03   -0.86276E-03  6272   0.538E-02    0.182E+00
DAV:  30    -0.358917714517E+04    0.34202E-02   -0.48167E-03  6144   0.496E-02    0.174E+00
DAV:  31    -0.358917489219E+04    0.22530E-02   -0.18484E-02  6400   0.593E-02    0.151E+00
DAV:  32    -0.358917644225E+04   -0.15501E-02   -0.17759E-02  6656   0.512E-02    0.140E+00
DAV:  33    -0.358917893738E+04   -0.24951E-02   -0.64265E-03  6400   0.374E-02    0.152E+00
DAV:  34    -0.358917790349E+04    0.10339E-02   -0.16718E-02  6400   0.421E-02    0.146E+00
DAV:  35    -0.358917891751E+04   -0.10140E-02   -0.66449E-03  6528   0.281E-02    0.148E+00
DAV:  36    -0.358917932271E+04   -0.40520E-03   -0.32339E-04  5632   0.216E-02    0.148E+00
DAV:  37    -0.358917925018E+04    0.72535E-04   -0.41559E-04  6400   0.955E-03    0.151E+00
DAV:  38    -0.358917900661E+04    0.24357E-03   -0.40011E-05  5888   0.622E-03    0.151E+00
DAV:  39    -0.358917874757E+04    0.25904E-03   -0.51267E-03  6528   0.241E-02    0.148E+00
DAV:  40    -0.358917901616E+04   -0.26858E-03   -0.82288E-05  5632   0.106E-02    0.148E+00
DAV:  41    -0.358917901674E+04   -0.58566E-06   -0.56432E-04  6272   0.805E-03    0.148E+00
DAV:  42    -0.358917902139E+04   -0.46431E-05   -0.15835E-03  6400   0.141E-02    0.148E+00
DAV:  43    -0.358917841853E+04    0.60286E-03   -0.16847E-03  5888   0.387E-02    0.155E+00
DAV:  44    -0.358917728366E+04    0.11349E-02   -0.27309E-04  5632   0.159E-02    0.154E+00
DAV:  45    -0.358917714420E+04    0.13946E-03   -0.29141E-05  6144   0.462E-03    0.154E+00
DAV:  46    -0.358917728324E+04   -0.13904E-03   -0.44021E-04  6528   0.928E-03    0.152E+00
DAV:  47    -0.358917747423E+04   -0.19099E-03   -0.94717E-04  6528   0.106E-02    0.153E+00
DAV:  48    -0.358917742013E+04    0.54100E-04   -0.94529E-04  6656   0.928E-03    0.153E+00
DAV:  49    -0.358917735219E+04    0.67940E-04   -0.18699E-03  6400   0.137E-02    0.153E+00
DAV:  50    -0.358917723187E+04    0.12032E-03   -0.21691E-03  6656   0.128E-02    0.152E+00
DAV:  51    -0.358917708842E+04    0.14344E-03   -0.13956E-04  5632   0.849E-03    0.152E+00
DAV:  52    -0.358917704325E+04    0.45170E-04   -0.44322E-05  5888   0.267E-03    0.151E+00
DAV:  53    -0.358917700866E+04    0.34596E-04   -0.20248E-06  5248   0.169E-03    0.151E+00
DAV:  54    -0.358917700155E+04    0.71022E-05   -0.97201E-08  4736   0.383E-04    0.151E+00
DAV:  55    -0.358917700231E+04   -0.75957E-06   -0.17239E-06  4736   0.532E-04
 augmentation electrons   1804.89413315665     
 soft         electrons  0.000000000000000E+000
 total        electrons   1804.89413315665     
 augmentation electrons -4.009674008967063E-002
 soft         electrons  0.000000000000000E+000
 total        electrons -4.009674008967063E-002
 augmentation electrons   1883.62926925177     
 soft         electrons  0.000000000000000E+000
 total        electrons   1883.62926925177     
 augmentation electrons   1827.00623730977     
 soft         electrons  0.000000000000000E+000
 total        electrons   1827.00623730977     
 augmentation electrons   56.1965428973471     
 soft         electrons   1748.69751498540     
 total        electrons   1804.89405788275     
 augmentation electrons   18.5462340846955     
 soft         electrons   1748.69751498540     
 total        electrons   30.6433831225347     
 translations:           0           1           0
   2 F= -.36267973E+04 E0= -.36267830E+04  d E =-.194043E+01  mag=    30.6835
 trial-energy change:   -1.940434  1 .order   -0.170978   -0.243842   -0.098114
 step:   1.0090(harm=  1.6733)  dis= 0.02470  next Energy= -3626.797786 (dE=-0.194E+01)
 bond charge predicted
       N       E                     dE             d eps       ncg     rms          rms(c)
DAV:   1    -0.359091684829E+04   -0.17398E+01   -0.96274E+00  7168   0.188E+00    0.154E+01
DAV:   2    -0.360298799068E+04   -0.12071E+02   -0.61070E+01  6272   0.481E+00    0.614E+01
DAV:   3    -0.359071335178E+04    0.12275E+02   -0.11843E+02  6272   0.501E+00    0.153E+01
DAV:   4    -0.359168700314E+04   -0.97365E+00   -0.16684E+00  6272   0.670E-01    0.123E+01
DAV:   5    -0.359244244697E+04   -0.75544E+00   -0.35712E-01  6016   0.580E-01    0.940E+00
DAV:   6    -0.359269266715E+04   -0.25022E+00   -0.25732E-01  5760   0.471E-01    0.843E+00
DAV:   7    -0.359284254443E+04   -0.14988E+00   -0.65014E-02  5632   0.354E-01    0.650E+00
DAV:   8    -0.359286977351E+04   -0.27229E-01   -0.40390E-01  5760   0.473E-01    0.668E+00
DAV:   9    -0.359288724333E+04   -0.17470E-01   -0.45762E-01  5760   0.462E-01    0.379E+00
DAV:  10    -0.359286003263E+04    0.27211E-01   -0.35916E-02  5760   0.213E-01    0.317E+00
DAV:  11    -0.359282476065E+04    0.35272E-01   -0.17101E-02  6016   0.149E-01    0.260E+00
DAV:  12    -0.359271167656E+04    0.11308E+00   -0.14615E-01  6144   0.640E-01    0.178E+00
DAV:  13    -0.359268995938E+04    0.21717E-01   -0.15599E-01  6144   0.551E-01    0.133E+00
DAV:  14    -0.359270545647E+04   -0.15497E-01   -0.87235E-02  5888   0.331E-01    0.150E+00
DAV:  15    -0.359270487676E+04    0.57971E-03   -0.28588E-02  6016   0.166E-01    0.108E+00
DAV:  16    -0.359270400971E+04    0.86705E-03   -0.25251E-03  6144   0.525E-02    0.989E-01
DAV:  17    -0.359270253253E+04    0.14772E-02   -0.13899E-03  6144   0.476E-02    0.730E-01
DAV:  18    -0.359270124795E+04    0.12846E-02   -0.37286E-03  5888   0.725E-02    0.581E-01
DAV:  19    -0.359270259175E+04   -0.13438E-02   -0.60734E-03  5888   0.111E-01    0.361E-01
DAV:  20    -0.359270329212E+04   -0.70038E-03   -0.19576E-03  6272   0.410E-02    0.597E-01
DAV:  21    -0.359270174466E+04    0.15475E-02   -0.81266E-03  6016   0.113E-01    0.590E-01
DAV:  22    -0.359270159203E+04    0.15263E-03   -0.28695E-03  6144   0.432E-02    0.317E-01
DAV:  23    -0.359270217899E+04   -0.58696E-03   -0.24460E-03  5632   0.520E-02    0.173E-01
DAV:  24    -0.359270188255E+04    0.29644E-03   -0.54570E-03  6272   0.645E-02    0.263E-01
DAV:  25    -0.359270246228E+04   -0.57973E-03   -0.46485E-03  6784   0.987E-02    0.305E-01
DAV:  26    -0.359270274754E+04   -0.28526E-03   -0.60244E-03  6144   0.413E-02    0.281E-01
DAV:  27    -0.359270258090E+04    0.16664E-03   -0.56921E-03  6400   0.324E-02    0.125E-01
DAV:  28    -0.359270270234E+04   -0.12144E-03   -0.33288E-03  6144   0.307E-02    0.104E-01
DAV:  29    -0.359270257924E+04    0.12310E-03   -0.35932E-03  6656   0.360E-02    0.841E-02
DAV:  30    -0.359270268719E+04   -0.10795E-03   -0.15609E-03  6400   0.337E-02    0.514E-02
DAV:  31    -0.359270281360E+04   -0.12641E-03   -0.75256E-04  6400   0.256E-02    0.363E-02
DAV:  32    -0.359270288634E+04   -0.72749E-04   -0.33941E-04  6400   0.133E-02    0.236E-02
DAV:  33    -0.359270291736E+04   -0.31016E-04   -0.58982E-05  6016   0.540E-03    0.246E-02
DAV:  34    -0.359270293607E+04   -0.18713E-04   -0.84098E-05  7168   0.689E-03    0.210E-02
DAV:  35    -0.359270295330E+04   -0.17227E-04   -0.28081E-04  6272   0.712E-03    0.180E-02
DAV:  36    -0.359270297778E+04   -0.24485E-04   -0.94111E-05  6016   0.494E-03    0.135E-02
DAV:  37    -0.359270299809E+04   -0.20309E-04   -0.14038E-04  6272   0.431E-03    0.135E-02
DAV:  38    -0.359270294537E+04    0.52728E-04   -0.19436E-03  6272   0.166E-02    0.180E-02
DAV:  39    -0.359270300602E+04   -0.60657E-04   -0.13009E-03  6656   0.920E-03    0.187E-02
DAV:  40    -0.359270310612E+04   -0.10010E-03   -0.71234E-04  6272   0.771E-03    0.171E-02
DAV:  41    -0.359270295051E+04    0.15561E-03   -0.41192E-03  6272   0.207E-02    0.223E-02
DAV:  42    -0.359270267366E+04    0.27685E-03   -0.80667E-03  6400   0.265E-02    0.304E-02
DAV:  43    -0.359270326764E+04   -0.59398E-03   -0.11683E-03  6144   0.172E-02    0.177E-02
DAV:  44    -0.359270313572E+04    0.13192E-03   -0.42010E-03  6144   0.182E-02    0.232E-02
DAV:  45    -0.359270353512E+04   -0.39940E-03   -0.17100E-04  5632   0.160E-02    0.108E-02
DAV:  46    -0.359270228871E+04    0.12464E-02   -0.20792E-02  6144   0.542E-02    0.421E-02
DAV:  47    -0.359270291981E+04   -0.63110E-03   -0.70328E-03  6272   0.240E-02    0.333E-02
DAV:  48    -0.359270377541E+04   -0.85560E-03   -0.98149E-04  5632   0.306E-02    0.109E-02
DAV:  49    -0.359270377678E+04   -0.13683E-05   -0.51927E-06  5504   0.128E-03    0.113E-02
DAV:  50    -0.359270377905E+04   -0.22712E-05   -0.14896E-05  6016   0.261E-03    0.994E-03
DAV:  51    -0.359270339217E+04    0.38688E-03   -0.46888E-03  6144   0.289E-02    0.212E-02
DAV:  52    -0.359270318972E+04    0.20245E-03   -0.49454E-03  6400   0.196E-02    0.253E-02
DAV:  53    -0.359270319230E+04   -0.25770E-05   -0.48977E-03  6528   0.166E-02    0.264E-02
DAV:  54    -0.359270369183E+04   -0.49953E-03   -0.99190E-04  6144   0.151E-02    0.164E-02
DAV:  55    -0.359270379014E+04   -0.98313E-04   -0.72431E-04  6400   0.756E-03    0.140E-02
DAV:  56    -0.359270392509E+04   -0.13495E-03   -0.90222E-05  6016   0.710E-03    0.977E-03
DAV:  57    -0.359270382054E+04    0.10455E-03   -0.12641E-03  6400   0.117E-02    0.131E-02
DAV:  58    -0.359270394383E+04   -0.12329E-03   -0.17388E-04  6144   0.746E-03    0.789E-03
DAV:  59    -0.359270383436E+04    0.10946E-03   -0.15397E-03  6400   0.125E-02    0.130E-02
DAV:  60    -0.359270396958E+04   -0.13522E-03   -0.17072E-04  6272   0.800E-03    0.691E-03
DAV:  61    -0.359270388322E+04    0.86363E-04   -0.13031E-03  6400   0.114E-02    0.117E-02
DAV:  62    -0.359270376650E+04    0.11672E-03   -0.25630E-03  6400   0.145E-02    0.168E-02
DAV:  63    -0.359270401126E+04   -0.24476E-03   -0.15330E-04  5632   0.128E-02    0.709E-03
DAV:  64    -0.359270402765E+04   -0.16391E-04   -0.34913E-05  6144   0.307E-03    0.657E-03
DAV:  65    -0.359270403231E+04   -0.46597E-05   -0.12437E-05  5760   0.257E-03    0.752E-03
DAV:  66    -0.359270403159E+04    0.72291E-06   -0.18532E-05  5632   0.177E-03    0.767E-03
DAV:  67    -0.359270402624E+04    0.53474E-05   -0.66137E-05  6016   0.257E-03    0.841E-03
DAV:  68    -0.359270402242E+04    0.38277E-05   -0.93019E-05  5760   0.256E-03    0.820E-03
DAV:  69    -0.359270402071E+04    0.17037E-05   -0.10262E-04  5504   0.249E-03    0.775E-03
DAV:  70    -0.359270403275E+04   -0.12037E-04   -0.33812E-05  5760   0.426E-03    0.441E-03
DAV:  71    -0.359270402606E+04    0.66869E-05   -0.11660E-04  6400   0.431E-03    0.402E-03
DAV:  72    -0.359270400818E+04    0.17880E-04   -0.30952E-04  6400   0.588E-03    0.577E-03
DAV:  73    -0.359270397984E+04    0.28343E-04   -0.57701E-04  6400   0.718E-03    0.814E-03
DAV:  74    -0.359270402924E+04   -0.49400E-04   -0.84178E-05  6016   0.524E-03    0.437E-03
DAV:  75    -0.359270403761E+04   -0.83725E-05   -0.49235E-05  5632   0.249E-03    0.339E-03
DAV:  76    -0.359270404464E+04   -0.70256E-05   -0.10012E-05  5760   0.188E-03    0.206E-03
DAV:  77    -0.359270403089E+04    0.13752E-04   -0.18790E-04  6400   0.490E-03    0.468E-03
DAV:  78    -0.359270404712E+04   -0.16239E-04   -0.11568E-05  5632   0.338E-03    0.151E-03
DAV:  79    -0.359270404422E+04    0.29033E-05   -0.53995E-05  6016   0.259E-03    0.248E-03
DAV:  80    -0.359270404716E+04   -0.29436E-05   -0.15986E-05  5376   0.163E-03    0.200E-03
DAV:  81    -0.359270404866E+04   -0.14917E-05   -0.72339E-06  5248   0.125E-03    0.152E-03
DAV:  82    -0.359270404812E+04    0.53723E-06   -0.18652E-05  5248   0.156E-03    0.215E-03
DAV:  83    -0.359270404870E+04   -0.58381E-06   -0.12548E-05  5248   0.111E-03    0.192E-03
DAV:  84    -0.359270404989E+04   -0.11891E-05   -0.41362E-06  5376   0.132E-03    0.112E-03
DAV:  85    -0.359270405000E+04   -0.10749E-06   -0.28388E-06  5120   0.555E-04
 augmentation electrons   1804.89459014781     
 soft         electrons  0.000000000000000E+000
 total        electrons   1804.89459014781     
 augmentation electrons -3.435881035960993E-002
 soft         electrons  0.000000000000000E+000
 total        electrons -3.435881035960993E-002
 augmentation electrons   1883.56426390564     
 soft         electrons  0.000000000000000E+000
 total        electrons   1883.56426390564     
 augmentation electrons   1826.94123196364     
 soft         electrons  0.000000000000000E+000
 total        electrons   1826.94123196364     
 augmentation electrons   56.1747037730617     
 soft         electrons   1748.71981127361     
 total        electrons   1804.89451504667     
 augmentation electrons   16.2878198374468     
 soft         electrons   1748.71981127361     
 total        electrons   26.9656269792871     
 translations:           0           1           0
   3 F= -.36303307E+04 E0= -.36303204E+04  d E =-.547381E+01  mag=    27.0000
 curvature:  -0.02 expect dE=-0.539E-02 dE for cont linesearch -0.948E-03
 ZBRENT: increasing intervall
 opt :   1.0271  next Energy= -3630.332624 (dE=-0.548E+01)
 bond charge predicted
       N       E                     dE             d eps       ncg     rms          rms(c)
DAV:   1    -0.359270569176E+04   -0.16419E-02   -0.65510E-03  6144   0.776E-02    0.525E-02
DAV:   2    -0.359270576204E+04   -0.70287E-04   -0.63693E-04  6144   0.165E-02    0.979E-02
DAV:   3    -0.359270575278E+04    0.92672E-05   -0.82604E-05  6016   0.836E-03    0.471E-02
DAV:   4    -0.359270575764E+04   -0.48677E-05   -0.11518E-05  5760   0.377E-03    0.254E-02
DAV:   5    -0.359270575675E+04    0.89833E-06   -0.36452E-06  5248   0.149E-03
 augmentation electrons   1804.89504069689     
 soft         electrons  0.000000000000000E+000
 total        electrons   1804.89504069689     
 augmentation electrons -3.431321451212656E-002
 soft         electrons  0.000000000000000E+000
 total        electrons -3.431321451212656E-002
 augmentation electrons   1883.43593598273     
 soft         electrons  0.000000000000000E+000
 total        electrons   1883.43593598273     
 augmentation electrons   1826.81290404073     
 soft         electrons  0.000000000000000E+000
 total        electrons   1826.81290404073     
 augmentation electrons   56.1763421485138     
 soft         electrons   1748.71862377309     
 total        electrons   1804.89496592161     
 augmentation electrons   16.2892537849728     
 soft         electrons   1748.71862377309     
 total        electrons   26.9656726526555     
 translations:           0           1           0
   4 F= -.36303323E+04 E0= -.36303220E+04  d E =-.547537E+01  mag=    27.0000
 curvature:  -0.04 expect dE=-0.110E-01 dE for cont linesearch -0.183E-02
 ZBRENT: increasing intervall
 opt :   1.0633  next Energy= -3630.335801 (dE=-0.548E+01)
 bond charge predicted
       N       E                     dE             d eps       ncg     rms          rms(c)
DAV:   1    -0.359271066233E+04   -0.49047E-02   -0.27044E-02  6272   0.160E-01    0.108E+00
DAV:   2    -0.359269568376E+04    0.14979E-01   -0.53722E-01  5504   0.329E-01    0.640E+00
DAV:   3    -0.359269049335E+04    0.51904E-02   -0.29717E-01  5504   0.254E-01    0.981E-01
DAV:   4    -0.359270502111E+04   -0.14528E-01   -0.74309E-03  5376   0.589E-02    0.851E-02
DAV:   5    -0.359270902937E+04   -0.40083E-02   -0.14298E-03  5376   0.312E-02    0.429E-01
DAV:   6    -0.359270878665E+04    0.24272E-03   -0.10894E-04  5760   0.908E-03    0.225E-01
DAV:   7    -0.359270892964E+04   -0.14298E-03   -0.47957E-05  5760   0.631E-03    0.146E-01
DAV:   8    -0.359270899720E+04   -0.67564E-04   -0.47302E-05  5632   0.760E-03    0.100E-02
DAV:   9    -0.359270904296E+04   -0.45760E-04   -0.22452E-05  5760   0.386E-03    0.384E-02
DAV:  10    -0.359270904368E+04   -0.72362E-06   -0.25134E-06  5760   0.172E-03
 augmentation electrons   1804.89587227560     
 soft         electrons  0.000000000000000E+000
 total        electrons   1804.89587227560     
 augmentation electrons -3.429906403539316E-002
 soft         electrons  0.000000000000000E+000
 total        electrons -3.429906403539316E-002
 augmentation electrons   1883.18591665129     
 soft         electrons  0.000000000000000E+000
 total        electrons   1883.18591665129     
 augmentation electrons   1826.56288470929     
 soft         electrons  0.000000000000000E+000
 total        electrons   1826.56288470929     
 augmentation electrons   56.1753900284033     
 soft         electrons   1748.72040811779     
 total        electrons   1804.89579814619     
 augmentation electrons   16.2883925164481     
 soft         electrons   1748.72040811779     
 total        electrons   26.9656869588259     
 translations:           0           1           0
   5 F= -.36303360E+04 E0= -.36303259E+04  d E =-.547914E+01  mag=    27.0000
 curvature:  -0.09 expect dE=-0.222E-01 dE for cont linesearch -0.320E-02
 ZBRENT: increasing intervall
 opt :   1.1355  next Energy= -3630.342577 (dE=-0.549E+01)
 bond charge predicted
       N       E                     dE             d eps       ncg     rms          rms(c)
DAV:   1    -0.359271603661E+04   -0.69936E-02   -0.10564E-01  6144   0.312E-01    0.138E+00
DAV:   2    -0.359273325091E+04   -0.17214E-01   -0.29015E-01  6272   0.358E-01    0.369E+00
DAV:   3    -0.359271827874E+04    0.14972E-01   -0.74323E-02  6016   0.235E-01    0.210E+00
DAV:   4    -0.359271068317E+04    0.75956E-02   -0.11941E-02  6144   0.790E-02    0.652E-01
DAV:   5    -0.359271398275E+04   -0.32996E-02   -0.21356E-03  5888   0.339E-02    0.379E-01
DAV:   6    -0.359271470101E+04   -0.71825E-03   -0.29798E-04  5760   0.154E-02    0.186E-01
DAV:   7    -0.359271497785E+04   -0.27684E-03   -0.10754E-04  5632   0.863E-03    0.412E-02
DAV:   8    -0.359271507969E+04   -0.10184E-03   -0.57583E-05  5632   0.737E-03    0.586E-02
DAV:   9    -0.359271507631E+04    0.33786E-05   -0.10168E-05  5632   0.394E-03    0.156E-02
DAV:  10    -0.359271507847E+04   -0.21511E-05   -0.32947E-06  5888   0.159E-03    0.560E-03
DAV:  11    -0.359271507920E+04   -0.73553E-06   -0.35018E-07  4992   0.581E-04
 augmentation electrons   1804.89763807732     
 soft         electrons  0.000000000000000E+000
 total        electrons   1804.89763807732     
 augmentation electrons -3.428953975635367E-002
 soft         electrons  0.000000000000000E+000
 total        electrons -3.428953975635367E-002
 augmentation electrons   1882.71249727147     
 soft         electrons  0.000000000000000E+000
 total        electrons   1882.71249727147     
 augmentation electrons   1826.08946532947     
 soft         electrons  0.000000000000000E+000
 total        electrons   1826.08946532947     
 augmentation electrons   56.1785933530065     
 soft         electrons   1748.71897186461     
 total        electrons   1804.89756521762     
 augmentation electrons   16.2912195090431     
 soft         electrons   1748.71897186461     
 total        electrons   26.9656968031218     
 translations:           0           1           0
   6 F= -.36303420E+04 E0= -.36303319E+04  d E =-.548513E+01  mag=    27.0000
 curvature:  -0.18 expect dE=-0.487E-01 dE for cont linesearch -0.517E-02
 ZBRENT: increasing intervall
 opt :   1.2801  next Energy= -3630.352751 (dE=-0.550E+01)
 bond charge predicted
       N       E                     dE             d eps       ncg     rms          rms(c)
DAV:   1    -0.359272083439E+04   -0.57559E-02   -0.41844E-01  5632   0.619E-01    0.402E-01
DAV:   2    -0.359272502120E+04   -0.41868E-02   -0.39401E-02  5888   0.122E-01    0.444E-01
DAV:   3    -0.359272516290E+04   -0.14170E-03   -0.39374E-03  6144   0.563E-02    0.545E-01
DAV:   4    -0.359272491225E+04    0.25065E-03   -0.11008E-03  5760   0.342E-02    0.153E-01
DAV:   5    -0.359272497434E+04   -0.62090E-04   -0.19682E-04  5632   0.971E-03    0.145E-01
DAV:   6    -0.359272500063E+04   -0.26291E-04   -0.13834E-04  5632   0.112E-02    0.136E-01
DAV:   7    -0.359272496243E+04    0.38197E-04   -0.62756E-05  5632   0.114E-02    0.174E-02
DAV:   8    -0.359272498717E+04   -0.24742E-04   -0.31124E-05  5888   0.426E-03    0.109E-01
DAV:   9    -0.359272496351E+04    0.23660E-04   -0.15558E-05  5632   0.404E-03    0.295E-02
DAV:  10    -0.359272497114E+04   -0.76278E-05   -0.32227E-06  5760   0.154E-03    0.298E-03
DAV:  11    -0.359272497448E+04   -0.33429E-05   -0.11179E-06  5248   0.114E-03    0.154E-03
DAV:  12    -0.359272497470E+04   -0.21473E-06   -0.27162E-07  4608   0.489E-04
 augmentation electrons   1804.90141034590     
 soft         electrons  0.000000000000000E+000
 total        electrons   1804.90141034590     
 augmentation electrons -3.428951880761050E-002
 soft         electrons  0.000000000000000E+000
 total        electrons -3.428951880761050E-002
 augmentation electrons   1881.87464919483     
 soft         electrons  0.000000000000000E+000
 total        electrons   1881.87464919483     
 augmentation electrons   1825.25161725283     
 soft         electrons  0.000000000000000E+000
 total        electrons   1825.25161725283     
 augmentation electrons   56.1835474848722     
 soft         electrons   1748.71779239922     
 total        electrons   1804.90133988409     
 augmentation electrons   16.2951486427475     
 soft         electrons   1748.71779239922     
 total        electrons   26.9656974594774     
 translations:           0           1           0
   7 F= -.36303522E+04 E0= -.36303421E+04  d E =-.549530E+01  mag=    27.0000
 curvature:  -0.37 expect dE=-0.118E+00 dE for cont linesearch -0.607E-02
 ZBRENT: increasing intervall
 opt :   1.5693  next Energy= -3630.364553 (dE=-0.551E+01)
 bond charge predicted
       N       E                     dE             d eps       ncg     rms          rms(c)
DAV:   1    -0.359271967005E+04    0.53044E-02   -0.16729E+00  5632   0.124E+00    0.844E-01
DAV:   2    -0.359273802277E+04   -0.18353E-01   -0.16563E-01  6016   0.269E-01    0.184E+00
DAV:   3    -0.359273466587E+04    0.33569E-02   -0.23403E-02  5888   0.133E-01    0.692E-01
DAV:   4    -0.359273653375E+04   -0.18679E-02   -0.27036E-03  5888   0.547E-02    0.476E-01
DAV:   5    -0.359273606513E+04    0.46861E-03   -0.91251E-04  5632   0.252E-02    0.278E-01
DAV:   6    -0.359273615942E+04   -0.94286E-04   -0.41031E-04  5632   0.192E-02    0.134E-01
DAV:   7    -0.359273612724E+04    0.32179E-04   -0.19887E-04  5760   0.183E-02    0.105E-01
DAV:   8    -0.359273611859E+04    0.86505E-05   -0.67934E-05  5760   0.820E-03    0.452E-02
DAV:   9    -0.359273611933E+04   -0.73963E-06   -0.84133E-06  6528   0.273E-03
 augmentation electrons   1804.90994819591     
 soft         electrons  0.000000000000000E+000
 total        electrons   1804.90994819591     
 augmentation electrons -3.434620787064115E-002
 soft         electrons  0.000000000000000E+000
 total        electrons -3.434620787064115E-002
 augmentation electrons   1880.65108546811     
 soft         electrons  0.000000000000000E+000
 total        electrons   1880.65108546811     
 augmentation electrons   1824.02805352611     
 soft         electrons  0.000000000000000E+000
 total        electrons   1824.02805352611     
 augmentation electrons   56.1948217294990     
 soft         electrons   1748.71506006491     
 total        electrons   1804.90988179440     
 augmentation electrons   16.3038656917357     
 soft         electrons   1748.71506006491     
 total        electrons   26.9656419930946     
 translations:           0           1           0
   8 F= -.36303636E+04 E0= -.36303536E+04  d E =-.550665E+01  mag=    27.0000
 curvature:  -0.74 expect dE=-0.339E+00 dE for cont linesearch -0.203E-02
 trial: gam= 1.76316 g(F)=  0.456E+00 g(S)=  0.000E+00 ort = 0.258E-01 (trialstep = 0.208E+00)
 search vector abs. value=  0.130E+01
 bond charge predicted
       N       E                     dE             d eps       ncg     rms          rms(c)
DAV:   1    -0.359277019524E+04   -0.34077E-01   -0.48481E+00  5632   0.202E+00    0.163E+00
DAV:   2    -0.359283091384E+04   -0.60719E-01   -0.82906E-01  5632   0.526E-01    0.609E+00
DAV:   3    -0.359279850604E+04    0.32408E-01   -0.33702E-01  5504   0.289E-01    0.583E-01
DAV:   4    -0.359281539798E+04   -0.16892E-01   -0.98982E-03  5632   0.738E-02    0.919E-01
DAV:   5    -0.359281490019E+04    0.49778E-03   -0.25782E-03  5632   0.518E-02    0.442E-01
DAV:   6    -0.359281494620E+04   -0.46007E-04   -0.82418E-04  5632   0.273E-02    0.162E-01
DAV:   7    -0.359281487840E+04    0.67800E-04   -0.52318E-04  5888   0.223E-02    0.351E-02
DAV:   8    -0.359281489136E+04   -0.12964E-04   -0.11796E-04  5760   0.887E-03    0.284E-02
DAV:   9    -0.359281488826E+04    0.31036E-05   -0.87245E-06  5888   0.289E-03    0.115E-02
DAV:  10    -0.359281488742E+04    0.83863E-06   -0.52389E-06  6528   0.192E-03
 augmentation electrons   1804.92438639604     
 soft         electrons  0.000000000000000E+000
 total        electrons   1804.92438639604     
 augmentation electrons -3.410739364244571E-002
 soft         electrons  0.000000000000000E+000
 total        electrons -3.410739364244571E-002
 augmentation electrons   1879.88409296597     
 soft         electrons  0.000000000000000E+000
 total        electrons   1879.88409296597     
 augmentation electrons   1823.26106102397     
 soft         electrons  0.000000000000000E+000
 total        electrons   1823.26106102397     
 augmentation electrons   56.2102652586977     
 soft         electrons   1748.71405862800     
 total        electrons   1804.92432388670     
 augmentation electrons   16.3166961450273     
 soft         electrons   1748.71405862800     
 total        electrons   26.9658824749820     
 translations:           0           1           0
   9 F= -.36304441E+04 E0= -.36304343E+04  d E =-.805914E-01  mag=    27.0000
 trial-energy change:   -0.080591  1 .order   -0.079509   -0.104332   -0.054686
 step:   0.3922(harm=  0.4375)  dis= 0.02231  next Energy= -3630.469060 (dE=-0.106E+00)
 bond charge predicted
       N       E                     dE             d eps       ncg     rms          rms(c)
DAV:   1    -0.359280822749E+04    0.66608E-02   -0.37819E+00  5632   0.178E+00    0.146E+00
DAV:   2    -0.359285724289E+04   -0.49015E-01   -0.66026E-01  5888   0.471E-01    0.568E+00
DAV:   3    -0.359282801255E+04    0.29230E-01   -0.27381E-01  5504   0.266E-01    0.514E-01
DAV:   4    -0.359284315846E+04   -0.15146E-01   -0.84572E-03  5632   0.665E-02    0.850E-01
DAV:   5    -0.359284302561E+04    0.13285E-03   -0.21820E-03  5632   0.484E-02    0.392E-01
DAV:   6    -0.359284306471E+04   -0.39104E-04   -0.62864E-04  5632   0.241E-02    0.142E-01
DAV:   7    -0.359284301330E+04    0.51416E-04   -0.41606E-04  5888   0.198E-02    0.391E-02
DAV:   8    -0.359284302412E+04   -0.10820E-04   -0.96011E-05  5632   0.819E-03    0.158E-02
DAV:   9    -0.359284302346E+04    0.65340E-06   -0.75227E-06  6144   0.230E-03
 augmentation electrons   1804.93305574582     
 soft         electrons  0.000000000000000E+000
 total        electrons   1804.93305574582     
 augmentation electrons -3.425253919330724E-002
 soft         electrons  0.000000000000000E+000
 total        electrons -3.425253919330724E-002
 augmentation electrons   1879.72370812252     
 soft         electrons  0.000000000000000E+000
 total        electrons   1879.72370812252     
 augmentation electrons   1823.10067618052     
 soft         electrons  0.000000000000000E+000
 total        electrons   1823.10067618052     
 augmentation electrons   56.2189442983780     
 soft         electrons   1748.71405061504     
[...]
 total        electrons   1924.94201201467     
 augmentation electrons   1868.31898007267     
 soft         electrons  0.000000000000000E+000
 total        electrons   1868.31898007267     
 augmentation electrons   56.1648543716403     
 soft         electrons   1748.72322604457     
 total        electrons   1804.88808041621     
 augmentation electrons   16.3227484359750     
 soft         electrons   1748.72322604457     
 total        electrons   26.9669321582667     
 translations:           0           1           0
 129 F= -.36307807E+04 E0= -.36307715E+04  d E =-.710458E-03  mag=    27.0000
 trial-energy change:   -0.000710  1 .order   -0.000698   -0.000890   -0.000506
 step:   0.3299(harm=  0.3905)  dis= 0.00070  next Energy= -3630.780953 (dE=-0.965E-03)
 bond charge predicted
       N       E                     dE             d eps       ncg     rms          rms(c)
DAV:   1    -0.359316687450E+04   -0.49406E-03   -0.21046E-02  5504   0.170E-01    0.579E-01
DAV:   2    -0.359317048577E+04   -0.36113E-02   -0.25690E-02  6144   0.157E-01    0.206E+00
DAV:   3    -0.359316509109E+04    0.53947E-02   -0.13785E-02  5504   0.110E-01    0.901E-01
DAV:   4    -0.359316496187E+04    0.12922E-03   -0.16171E-03  5888   0.275E-02    0.180E-01
DAV:   5    -0.359316634929E+04   -0.13874E-02   -0.45556E-04  5632   0.158E-02    0.166E-01
DAV:   6    -0.359316646468E+04   -0.11539E-03   -0.41483E-05  5632   0.666E-03    0.206E-02
DAV:   7    -0.359316653821E+04   -0.73533E-04   -0.31284E-05  5504   0.487E-03    0.628E-02
DAV:   8    -0.359316653690E+04    0.13078E-05   -0.10443E-05  5376   0.357E-03    0.163E-02
DAV:   9    -0.359316654041E+04   -0.35071E-05   -0.18706E-06  5120   0.140E-03    0.898E-03
DAV:  10    -0.359316654022E+04    0.18906E-06   -0.19993E-07  4864   0.397E-04
 augmentation electrons   1804.88831322165     
 soft         electrons  0.000000000000000E+000
 total        electrons   1804.88831322165     
 augmentation electrons -3.311689303215461E-002
 soft         electrons  0.000000000000000E+000
 total        electrons -3.311689303215461E-002
 augmentation electrons   1925.41788761017     
 soft         electrons  0.000000000000000E+000
 total        electrons   1925.41788761017     
 augmentation electrons   1868.79485566817     
 soft         electrons  0.000000000000000E+000
 total        electrons   1868.79485566817     
 augmentation electrons   56.1657155484011     
 soft         electrons   1748.72256574534     
 total        electrons   1804.88828129374     
 augmentation electrons   16.3230983563563     
 soft         electrons   1748.72256574534     
 total        electrons   26.9668767390077     
 translations:           0           1           0
 130 F= -.36307808E+04 E0= -.36307716E+04  d E =-.855006E-03  mag=    27.0000
 curvature:  -0.41 expect dE=-0.900E-03 dE for cont linesearch -0.257E-04
 ZBRENT: extrapolating
 opt :   0.3953  next Energy= -3630.780872 (dE=-0.883E-03)
 bond charge predicted
       N       E                     dE             d eps       ncg     rms          rms(c)
DAV:   1    -0.359316649703E+04    0.43386E-04   -0.34362E-03  5760   0.683E-02    0.449E-02
DAV:   2    -0.359316653056E+04   -0.33534E-04   -0.25126E-04  6016   0.173E-02    0.185E-01
DAV:   3    -0.359316648162E+04    0.48938E-04   -0.91397E-05  5376   0.101E-02    0.476E-02
DAV:   4    -0.359316650060E+04   -0.18977E-04   -0.16784E-05  5504   0.347E-03    0.403E-02
DAV:   5    -0.359316650675E+04   -0.61522E-05   -0.82693E-06  5248   0.310E-03    0.171E-02
DAV:   6    -0.359316650718E+04   -0.43058E-06   -0.15111E-06  4864   0.147E-03
 augmentation electrons   1804.88835529582     
 soft         electrons  0.000000000000000E+000
 total        electrons   1804.88835529582     
 augmentation electrons -3.312863180727223E-002
 soft         electrons  0.000000000000000E+000
 total        electrons -3.312863180727223E-002
 augmentation electrons   1925.60952163500     
 soft         electrons  0.000000000000000E+000
 total        electrons   1925.60952163500     
 augmentation electrons   1868.98648969300     
 soft         electrons  0.000000000000000E+000
 total        electrons   1868.98648969300     
 augmentation electrons   56.1653574066325     
 soft         electrons   1748.72296599277     
 total        electrons   1804.88832339940     
 augmentation electrons   16.3225888266137     
 soft         electrons   1748.72296599277     
 total        electrons   26.9668649965778     
 translations:           0           1           0
 131 F= -.36307809E+04 E0= -.36307717E+04  d E =-.939960E-03  mag=    27.0000
 curvature:  -0.45 expect dE=-0.136E-02 dE for cont linesearch -0.247E-08
 trial: gam= 0.62758 g(F)=  0.302E-02 g(S)=  0.000E+00 ort = 0.809E-05 (trialstep = 0.214E+00)
 search vector abs. value=  0.774E-02
 bond charge predicted
       N       E                     dE             d eps       ncg     rms          rms(c)
DAV:   1    -0.359316733567E+04   -0.82892E-03   -0.21394E-02  5504   0.182E-01    0.682E-01
DAV:   2    -0.359317202448E+04   -0.46888E-02   -0.35509E-02  6016   0.183E-01    0.230E+00
DAV:   3    -0.359316557389E+04    0.64506E-02   -0.18405E-02  5504   0.127E-01    0.108E+00
DAV:   4    -0.359316477700E+04    0.79689E-03   -0.23315E-03  6144   0.330E-02    0.240E-01
DAV:   5    -0.359316657326E+04   -0.17963E-02   -0.58770E-04  5632   0.178E-02    0.191E-01
DAV:   6    -0.359316677124E+04   -0.19798E-03   -0.50035E-05  5504   0.688E-03    0.607E-02
DAV:   7    -0.359316686091E+04   -0.89666E-04   -0.34773E-05  5504   0.517E-03    0.526E-02
DAV:   8    -0.359316687714E+04   -0.16234E-04   -0.14313E-05  5376   0.391E-03    0.139E-02
DAV:   9    -0.359316687827E+04   -0.11250E-05   -0.13142E-06  5504   0.123E-03    0.186E-03
DAV:  10    -0.359316687837E+04   -0.98196E-07   -0.17660E-07  4736   0.316E-04
 augmentation electrons   1804.88844067691     
 soft         electrons  0.000000000000000E+000
 total        electrons   1804.88844067691     
 augmentation electrons -3.312412012594042E-002
 soft         electrons  0.000000000000000E+000
 total        electrons -3.312412012594042E-002
 augmentation electrons   1926.11671506754     
 soft         electrons  0.000000000000000E+000
 total        electrons   1926.11671506754     
 augmentation electrons   1869.49368312554     
 soft         electrons  0.000000000000000E+000
 total        electrons   1869.49368312554     
 augmentation electrons   56.1661416972456     
 soft         electrons   1748.72226702050     
 total        electrons   1804.88840871775     
 augmentation electrons   16.3229874801812     
 soft         electrons   1748.72226702050     
 total        electrons   26.9668694606181     
 translations:           0           1           0
 132 F= -.36307813E+04 E0= -.36307720E+04  d E =-.334126E-03  mag=    27.0000
 trial-energy change:   -0.000334  1 .order   -0.000538   -0.000646   -0.000431
 step:   0.6419(harm=  0.6419)  dis= 0.00123  next Energy= -3630.781898 (dE=-0.970E-03)
 bond charge predicted
       N       E                     dE             d eps       ncg     rms          rms(c)
DAV:   1    -0.359316659755E+04    0.28072E-03   -0.85516E-02  5504   0.362E-01    0.139E-01
DAV:   2    -0.359316703254E+04   -0.43498E-03   -0.44757E-03  5888   0.629E-02    0.359E-01
DAV:   3    -0.359316690218E+04    0.13036E-03   -0.62822E-04  5376   0.275E-02    0.573E-02
DAV:   4    -0.359316699475E+04   -0.92571E-04   -0.78503E-05  5632   0.830E-03    0.115E-01
DAV:   5    -0.359316699245E+04    0.22978E-05   -0.57428E-05  5504   0.837E-03    0.105E-01
DAV:   6    -0.359316697821E+04    0.14245E-04   -0.22102E-05  5504   0.623E-03    0.376E-02
DAV:   7    -0.359316698396E+04   -0.57494E-05   -0.79414E-06  5760   0.312E-03    0.401E-02
DAV:   8    -0.359316698537E+04   -0.14095E-05   -0.53625E-06  5504   0.268E-03    0.232E-03
DAV:   9    -0.359316698655E+04   -0.11833E-05   -0.50232E-07  4736   0.715E-04    0.117E-03
DAV:  10    -0.359316698669E+04   -0.14239E-06   -0.17674E-07  4224   0.390E-04
 augmentation electrons   1804.88870287547     
 soft         electrons  0.000000000000000E+000
 total        electrons   1804.88870287547     
 augmentation electrons -3.311599344027392E-002
 soft         electrons  0.000000000000000E+000
 total        electrons -3.311599344027392E-002
 augmentation electrons   1927.13558174396     
 soft         electrons  0.000000000000000E+000
 total        electrons   1927.13558174396     
 augmentation electrons   1870.51254980196     
 soft         electrons  0.000000000000000E+000
 total        electrons   1870.51254980196     
 augmentation electrons   56.1669608369271     
 soft         electrons   1748.72170995784     
 total        electrons   1804.88867079476     
 augmentation electrons   16.3229495183767     
 soft         electrons   1748.72170995784     
 total        electrons   26.9668774904612     
 translations:           0           1           0
 133 F= -.36307815E+04 E0= -.36307722E+04  d E =-.528430E-03  mag=    27.0000
 curvature:  -0.82 expect dE=-0.262E-02 dE for cont linesearch -0.246E-06
 trial: gam= 0.96872 g(F)=  0.319E-02 g(S)=  0.000E+00 ort = 0.482E-04 (trialstep = 0.220E+00)
 search vector abs. value=  0.105E-01
 bond charge predicted
       N       E                     dE             d eps       ncg     rms          rms(c)
DAV:   1    -0.359316732461E+04   -0.33806E-03   -0.31996E-02  5760   0.222E-01    0.713E-02
DAV:   2    -0.359316746425E+04   -0.13964E-03   -0.15603E-03  5888   0.324E-02    0.465E-02
DAV:   3    -0.359316747982E+04   -0.15573E-04   -0.76139E-05  5760   0.103E-02    0.539E-02
DAV:   4    -0.359316747680E+04    0.30225E-05   -0.17628E-05  5760   0.470E-03    0.190E-02
DAV:   5    -0.359316747723E+04   -0.43226E-06   -0.40903E-06  5632   0.232E-03
 augmentation electrons   1804.88832682198     
 soft         electrons  0.000000000000000E+000
 total        electrons   1804.88832682198     
 augmentation electrons -3.314404174813888E-002
 soft         electrons  0.000000000000000E+000
 total        electrons -3.314404174813888E-002
 augmentation electrons   1927.65498524868     
 soft         electrons  0.000000000000000E+000
 total        electrons   1927.65498524868     
 augmentation electrons   1871.03195330668     
 soft         electrons  0.000000000000000E+000
 total        electrons   1871.03195330668     
 augmentation electrons   56.1652874400635     
 soft         electrons   1748.72300717012     
 total        electrons   1804.88829461018     
 augmentation electrons   16.3214174369961     
 soft         electrons   1748.72300717012     
 total        electrons   26.9668493658306     
 translations:           0           1           0
 134 F= -.36307823E+04 E0= -.36307731E+04  d E =-.840381E-03  mag=    27.0000
 trial-energy change:   -0.000840  1 .order   -0.000544   -0.000711   -0.000378
 step:   0.2544(harm=  0.4686)  dis= 0.00061  next Energy= -3630.782328 (dE=-0.871E-03)
 bond charge predicted
       N       E                     dE             d eps       ncg     rms          rms(c)
DAV:   1    -0.359317173821E+04   -0.42614E-02   -0.24662E-03  6400   0.549E-02    0.201E+00
DAV:   2    -0.359319026195E+04   -0.18524E-01   -0.31383E-01  6144   0.494E-01    0.403E+00
DAV:   3    -0.359316978161E+04    0.20480E-01   -0.12925E-01  5888   0.292E-01    0.240E+00
DAV:   4    -0.359316851132E+04    0.12703E-02   -0.16278E-02  6016   0.895E-02    0.180E+00
DAV:   5    -0.359316400691E+04    0.45044E-02   -0.46734E-03  6400   0.582E-02    0.905E-01
DAV:   6    -0.359316537906E+04   -0.13722E-02   -0.13186E-03  6016   0.258E-02    0.281E-01
DAV:   7    -0.359316712798E+04   -0.17489E-02   -0.43816E-04  5504   0.165E-02    0.158E-01
DAV:   8    -0.359316743322E+04   -0.30524E-03   -0.71432E-05  5504   0.713E-03    0.656E-02
DAV:   9    -0.359316750380E+04   -0.70586E-04   -0.19177E-05  5504   0.350E-03    0.595E-02
DAV:  10    -0.359316751503E+04   -0.11227E-04   -0.23511E-06  6016   0.141E-03    0.548E-02
DAV:  11    -0.359316751475E+04    0.27599E-06   -0.15203E-06  5504   0.121E-03
 augmentation electrons   1804.88825849398     
 soft         electrons  0.000000000000000E+000
 total        electrons   1804.88825849398     
 augmentation electrons -3.314626965523997E-002
 soft         electrons  0.000000000000000E+000
 total        electrons -3.314626965523997E-002
 augmentation electrons   1927.73797759423     
 soft         electrons  0.000000000000000E+000
 total        electrons   1927.73797759423     
 augmentation electrons   1871.11494565223     
 soft         electrons  0.000000000000000E+000
 total        electrons   1871.11494565223     
 augmentation electrons   56.1657137914184     
 soft         electrons   1748.72251247087     
 total        electrons   1804.88822626229     
 augmentation electrons   16.3219076751953     
 soft         electrons   1748.72251247087     
 total        electrons   26.9668471255411     
 translations:           0           1           0
 135 F= -.36307823E+04 E0= -.36307731E+04  d E =-.796106E-03  mag=    27.0000
 curvature:  -0.20 expect dE=-0.277E-03 dE for cont linesearch -0.394E-04
 ZBRENT: increasing intervall
 opt :   0.3237  next Energy= -3630.782334 (dE=-0.878E-03)
 bond charge predicted
       N       E                     dE             d eps       ncg     rms          rms(c)
DAV:   1    -0.359316947962E+04   -0.19646E-02   -0.37485E-03  6144   0.785E-02    0.131E+00
DAV:   2    -0.359318090020E+04   -0.11421E-01   -0.12984E-01  6016   0.328E-01    0.339E+00
DAV:   3    -0.359317178564E+04    0.91146E-02   -0.57224E-02  5504   0.207E-01    0.199E+00
DAV:   4    -0.359316345450E+04    0.83311E-02   -0.92654E-03  6144   0.719E-02    0.836E-01
DAV:   5    -0.359316598791E+04   -0.25334E-02   -0.16267E-03  5888   0.265E-02    0.497E-01
DAV:   6    -0.359316691177E+04   -0.92386E-03   -0.26480E-04  5632   0.139E-02    0.242E-01
DAV:   7    -0.359316737758E+04   -0.46580E-03   -0.11675E-04  5504   0.909E-03    0.681E-02
DAV:   8    -0.359316755984E+04   -0.18227E-03   -0.51788E-05  5504   0.562E-03    0.400E-02
DAV:   9    -0.359316758383E+04   -0.23988E-04   -0.52068E-06  5632   0.217E-03    0.194E-02
DAV:  10    -0.359316759006E+04   -0.62294E-05   -0.16473E-06  5376   0.118E-03    0.728E-03
DAV:  11    -0.359316759163E+04   -0.15651E-05   -0.41608E-07  5120   0.544E-04    0.697E-03
DAV:  12    -0.359316759178E+04   -0.14828E-06   -0.67366E-08  4096   0.241E-04
 augmentation electrons   1804.88815415915     
 soft         electrons  0.000000000000000E+000
 total        electrons   1804.88815415915     
 augmentation electrons -3.313894993466185E-002
 soft         electrons  0.000000000000000E+000
 total        electrons -3.313894993466185E-002
 augmentation electrons   1927.90477335593     
 soft         electrons  0.000000000000000E+000
 total        electrons   1927.90477335593     
 augmentation electrons   1871.28174141393     
 soft         electrons  0.000000000000000E+000
 total        electrons   1871.28174141393     
 augmentation electrons   56.1665346071906     
 soft         electrons   1748.72158728028     
 total        electrons   1804.88812188747     
 augmentation electrons   16.3226138620527     
 soft         electrons   1748.72158728028     
 total        electrons   26.9668544214689     
 translations:           0           1           0
 136 F= -.36307822E+04 E0= -.36307730E+04  d E =-.754587E-03  mag=    27.0000
 curvature:  -0.41 expect dE=-0.595E-03 dE for cont linesearch -0.367E-04
 ZBRENT: increasing intervall
 opt :   0.4625  next Energy= -3630.782279 (dE=-0.823E-03)
 bond charge predicted
       N       E                     dE             d eps       ncg     rms          rms(c)
DAV:   1    -0.359316758207E+04    0.95613E-05   -0.12760E-02  5760   0.140E-01    0.961E-02
DAV:   2    -0.359316773949E+04   -0.15742E-03   -0.11331E-03  6144   0.356E-02    0.392E-01
DAV:   3    -0.359316752599E+04    0.21349E-03   -0.41602E-04  5248   0.212E-02    0.106E-01
DAV:   4    -0.359316760737E+04   -0.81374E-04   -0.77764E-05  5632   0.722E-03    0.863E-02
DAV:   5    -0.359316763084E+04   -0.23469E-04   -0.34181E-05  5376   0.615E-03    0.327E-02
DAV:   6    -0.359316763285E+04   -0.20103E-05   -0.41545E-06  5376   0.257E-03    0.216E-02
DAV:   7    -0.359316763176E+04    0.10875E-05   -0.16023E-06  4992   0.140E-03    0.126E-02
DAV:   8    -0.359316763283E+04   -0.10664E-05   -0.88312E-07  5248   0.102E-03    0.896E-03
DAV:   9    -0.359316763263E+04    0.19287E-06   -0.77366E-08  4352   0.273E-04
 augmentation electrons   1804.88797512926     
 soft         electrons  0.000000000000000E+000
 total        electrons   1804.88797512926     
 augmentation electrons -3.313662867906512E-002
 soft         electrons  0.000000000000000E+000
 total        electrons -3.313662867906512E-002
 augmentation electrons   1928.24164347449     
 soft         electrons  0.000000000000000E+000
 total        electrons   1928.24164347449     
 augmentation electrons   1871.61861153249     
 soft         electrons  0.000000000000000E+000
 total        electrons   1871.61861153249     
 augmentation electrons   56.1667386580065     
 soft         electrons   1748.72120411875     
 total        electrons   1804.88794277676     
 augmentation electrons   16.3227967979541     
 soft         electrons   1748.72120411875     
 total        electrons   26.9668566944986     
 translations:           0           1           0
 137 F= -.36307823E+04 E0= -.36307730E+04  d E =-.806588E-03  mag=    27.0000
 curvature:  -0.76 expect dE=-0.169E-02 dE for cont linesearch -0.168E-06
 trial: gam= 0.67388 g(F)=  0.222E-02 g(S)=  0.000E+00 ort = 0.481E-04 (trialstep = 0.268E+00)
 search vector abs. value=  0.707E-02
 bond charge predicted
       N       E                     dE             d eps       ncg     rms          rms(c)
DAV:   1    -0.359316803630E+04   -0.40347E-03   -0.31697E-02  5632   0.217E-01    0.274E-01
DAV:   2    -0.359316932712E+04   -0.12908E-02   -0.68078E-03  6016   0.853E-02    0.141E+00
DAV:   3    -0.359316647083E+04    0.28563E-02   -0.39928E-03  5504   0.632E-02    0.300E-01
DAV:   4    -0.359316771878E+04   -0.12480E-02   -0.55818E-04  5504   0.176E-02    0.112E-01
DAV:   5    -0.359316808305E+04   -0.36428E-03   -0.18227E-04  5120   0.122E-02    0.883E-02
DAV:   6    -0.359316806613E+04    0.16925E-04   -0.17547E-05  5376   0.461E-03    0.208E-02
DAV:   7    -0.359316807138E+04   -0.52562E-05   -0.53687E-06  5632   0.213E-03    0.135E-02
DAV:   8    -0.359316807339E+04   -0.20029E-05   -0.16595E-06  5376   0.136E-03    0.899E-03
DAV:   9    -0.359316807332E+04    0.70751E-07   -0.11884E-07  4608   0.312E-04
 augmentation electrons   1804.88793493005     
 soft         electrons  0.000000000000000E+000
 total        electrons   1804.88793493005     
 augmentation electrons -3.309679257076899E-002
 soft         electrons  0.000000000000000E+000
 total        electrons -3.309679257076899E-002
 augmentation electrons   1928.58338066152     
 soft         electrons  0.000000000000000E+000
 total        electrons   1928.58338066152     
 augmentation electrons   1871.96034871952     
 soft         electrons  0.000000000000000E+000
 total        electrons   1871.96034871952     
 augmentation electrons   56.1658232856252     
 soft         electrons   1748.72207913756     
 total        electrons   1804.88790242318     
 augmentation electrons   16.3218544036159     
 soft         electrons   1748.72207913756     
 total        electrons   26.9668964569570     
 translations:           0           1           0
 138 F= -.36307830E+04 E0= -.36307738E+04  d E =-.763112E-03  mag=    27.0000
 trial-energy change:   -0.000763  1 .order   -0.000457   -0.000603   -0.000311
 step:   0.3034(harm=  0.5530)  dis= 0.00054  next Energy= -3630.783047 (dE=-0.784E-03)
 reached required accuracy - stopping structural energy minimisation
 writing wavefunctions
