 ----------------------------------------------------
    OOO  PPPP  EEEEE N   N M   M PPPP
   O   O P   P E     NN  N MM MM P   P
   O   O PPPP  EEEEE N N N M M M PPPP   -- VERSION
   O   O P     E     N  NN M   M P
    OOO  P     EEEEE N   N M   M P
 ----------------------------------------------------
 running  512 mpi-ranks, with    1 threads/rank
 distrk:  each k-point on  512 cores,    1 groups
 distr:  one band on    4 cores,  128 groups
 vasp.6.3.2 27Jun22 (build Nov 12 2024 19:13:04) complex                        
  
 POSCAR found type information on POSCAR MnBrN C H 
 POSCAR found :  5 types and     635 ions
 scaLAPACK will be used
 LDA part: xc-table for Pade appr. of Perdew
 POSCAR, INCAR and KPOINTS ok, starting setup
 FFT: planning ... GRIDC
 FFT: planning ... GRID_SOFT
 FFT: planning ... GRID
 WAVECAR not read
 entering main loop
       N       E                     dE             d eps       ncg     rms          rms(c)
DAV:   1     0.983778852507E+04    0.98378E+04   -0.80295E+05  5376   0.119E+03
DAV:   2    -0.262053088190E+04   -0.12458E+05   -0.12038E+05  6400   0.259E+02
DAV:   3    -0.383327657509E+04   -0.12127E+04   -0.12033E+04  6400   0.864E+01
DAV:   4    -0.386481960623E+04   -0.31543E+02   -0.31314E+02  6656   0.159E+01
DAV:   5    -0.386581093668E+04   -0.99133E+00   -0.99019E+00  6656   0.267E+00    0.123E+02
DAV:   6    -0.379037165742E+04    0.75439E+02   -0.21412E+03  6784   0.343E+01    0.221E+02
DAV:   7    -0.360225232575E+04    0.18812E+03   -0.84068E+02  6528   0.381E+01    0.868E+01
DAV:   8    -0.384397588614E+04   -0.24172E+03   -0.88827E+02  7424   0.312E+01    0.150E+02
DAV:   9    -0.359262940492E+04    0.25135E+03   -0.12347E+03  6912   0.265E+01    0.798E+01
DAV:  10    -0.361534316419E+04   -0.22714E+02   -0.73679E+02  6912   0.113E+01    0.922E+01
DAV:  11    -0.357897034016E+04    0.36373E+02   -0.27686E+02  6400   0.123E+01    0.627E+01
DAV:  12    -0.359345719105E+04   -0.14487E+02   -0.30897E+02  6528   0.786E+00    0.702E+01
DAV:  13    -0.358092717120E+04    0.12530E+02   -0.28485E+02  6400   0.676E+00    0.545E+01
DAV:  14    -0.357301610793E+04    0.79111E+01   -0.46095E+01  6272   0.459E+00    0.427E+01
DAV:  15    -0.357767286594E+04   -0.46568E+01   -0.10817E+01  5888   0.133E+00    0.397E+01
DAV:  16    -0.357931668050E+04   -0.16438E+01   -0.43488E+00  5632   0.894E-01    0.398E+01
DAV:  17    -0.358086013347E+04   -0.15435E+01   -0.32302E+00  6144   0.247E+00    0.371E+01
DAV:  18    -0.358515995732E+04   -0.42998E+01   -0.21633E+01  6144   0.214E+00    0.308E+01
DAV:  19    -0.358515977889E+04    0.17844E-03   -0.11865E+01  7040   0.225E+00    0.274E+01
DAV:  20    -0.358534508701E+04   -0.18531E+00   -0.31630E+00  7168   0.249E+00    0.239E+01
DAV:  21    -0.358120442427E+04    0.41407E+01   -0.61370E+00  6400   0.317E+00    0.221E+01
DAV:  22    -0.358557982299E+04   -0.43754E+01   -0.21118E+00  6528   0.184E+00    0.182E+01
DAV:  23    -0.358848879230E+04   -0.29090E+01   -0.14594E+00  6272   0.170E+00    0.149E+01
DAV:  24    -0.358964675599E+04   -0.11580E+01   -0.90930E-01  6272   0.137E+00    0.124E+01
DAV:  25    -0.358981226525E+04   -0.16551E+00   -0.48186E-01  5888   0.120E+00    0.108E+01
DAV:  26    -0.358955811320E+04    0.25415E+00   -0.29854E-01  6528   0.121E+00    0.941E+00
DAV:  27    -0.359050712479E+04   -0.94901E+00   -0.12563E+01  6400   0.237E+00    0.712E+00
DAV:  28    -0.359050182932E+04    0.52955E-02   -0.50768E-01  6144   0.428E-01    0.710E+00
DAV:  29    -0.359049067663E+04    0.11153E-01   -0.12179E-02  6656   0.814E-02    0.710E+00
DAV:  30    -0.359054392313E+04   -0.53247E-01   -0.31060E-03  6400   0.709E-02    0.713E+00
DAV:  31    -0.359054943063E+04   -0.55075E-02   -0.16255E-03  6400   0.441E-02    0.714E+00
DAV:  32    -0.359055195283E+04   -0.25222E-02   -0.30993E-04  6016   0.183E-02    0.714E+00
DAV:  33    -0.359051226110E+04    0.39692E-01   -0.18653E-03  6400   0.893E-02    0.715E+00
DAV:  34    -0.359074630305E+04   -0.23404E+00   -0.14853E-01  6400   0.788E-01    0.717E+00
DAV:  35    -0.359268166298E+04   -0.19354E+01   -0.36808E+00  6656   0.246E+00    0.162E+01
DAV:  36    -0.359235442002E+04    0.32724E+00   -0.13194E+00  6272   0.746E-01    0.124E+01
DAV:  37    -0.359233543914E+04    0.18981E-01   -0.32312E-02  6272   0.150E-01    0.123E+01
DAV:  38    -0.359234576250E+04   -0.10323E-01   -0.23821E-03  6912   0.272E-02    0.124E+01
DAV:  39    -0.359233963899E+04    0.61235E-02   -0.20788E-04  6272   0.777E-03    0.124E+01
DAV:  40    -0.359238306499E+04   -0.43426E-01   -0.15387E-02  6016   0.534E-02    0.131E+01
DAV:  41    -0.359237688286E+04    0.61821E-02   -0.50522E-03  5632   0.361E-02    0.127E+01
DAV:  42    -0.359234874226E+04    0.28141E-01   -0.34309E-03  5760   0.367E-02    0.123E+01
DAV:  43    -0.359230091493E+04    0.47827E-01   -0.75613E-03  5760   0.345E-02    0.123E+01
DAV:  44    -0.359226889900E+04    0.32016E-01   -0.32557E-02  5888   0.508E-02    0.136E+01
DAV:  45    -0.359226296338E+04    0.59356E-02   -0.64867E-02  5760   0.731E-02    0.144E+01
DAV:  46    -0.359208389682E+04    0.17907E+00   -0.92552E-02  5888   0.126E-01    0.138E+01
DAV:  47    -0.359209272648E+04   -0.88297E-02   -0.24402E-02  5888   0.580E-02    0.137E+01
DAV:  48    -0.359209155606E+04    0.11704E-02   -0.65095E-02  6144   0.629E-02    0.147E+01
DAV:  49    -0.359207273600E+04    0.18820E-01   -0.20062E-02  6016   0.713E-02    0.150E+01
DAV:  50    -0.359188568305E+04    0.18705E+00   -0.11190E-01  6272   0.143E-01    0.141E+01
DAV:  51    -0.359736320819E+04   -0.54775E+01   -0.21058E+01  6656   0.157E+00    0.339E+01
DAV:  52    -0.359765062126E+04   -0.28741E+00   -0.27869E-01  6016   0.361E-01    0.340E+01
DAV:  53    -0.359728935462E+04    0.36127E+00   -0.47503E-02  5888   0.139E-01    0.335E+01
DAV:  54    -0.359694325032E+04    0.34610E+00   -0.14937E-02  6272   0.929E-02    0.327E+01
DAV:  55    -0.359721818940E+04   -0.27494E+00   -0.11337E-02  5888   0.787E-02    0.330E+01
DAV:  56    -0.360896254579E+04   -0.11744E+02   -0.39073E+01  6400   0.221E+00    0.410E+01
DAV:  57    -0.360660970604E+04    0.23528E+01   -0.22115E+00  6272   0.703E-01    0.405E+01
DAV:  58    -0.360646690491E+04    0.14280E+00   -0.38608E-02  6272   0.156E-01    0.404E+01
DAV:  59    -0.360618838236E+04    0.27852E+00   -0.35848E-03  6144   0.502E-02    0.403E+01
DAV:  60    -0.360570211405E+04    0.48627E+00   -0.50505E-02  5888   0.724E-02    0.399E+01
DAV:  61    -0.367241213043E+04   -0.66710E+02   -0.33900E+02  6016   0.484E+00    0.737E+01
DAV:  62    -0.367098790215E+04    0.14242E+01   -0.29969E+00  5888   0.121E+00    0.718E+01
DAV:  63    -0.367051069568E+04    0.47721E+00   -0.73579E-02  7168   0.226E-01    0.718E+01
DAV:  64    -0.367054303144E+04   -0.32336E-01   -0.39875E-03  6144   0.453E-02    0.718E+01
DAV:  65    -0.367078232706E+04   -0.23930E+00   -0.25157E-02  6272   0.315E-02    0.720E+01
DAV:  66    -0.364918760361E+04    0.21595E+02   -0.10492E+01  6528   0.877E-01    0.612E+01
DAV:  67    -0.364948924487E+04   -0.30164E+00   -0.10812E-01  5760   0.274E-01    0.612E+01
DAV:  68    -0.364892641724E+04    0.56283E+00   -0.11319E-02  6016   0.868E-02    0.611E+01
DAV:  69    -0.364817326051E+04    0.75316E+00   -0.21889E-02  5760   0.980E-02    0.611E+01
DAV:  70    -0.364788387502E+04    0.28939E+00   -0.15953E-02  5888   0.723E-02    0.611E+01
DAV:  71    -0.358237878609E+04    0.65505E+02   -0.58212E+02  6016   0.768E+00    0.110E+01
DAV:  72    -0.358346499402E+04   -0.10862E+01   -0.96376E+00  6400   0.224E+00    0.975E+00
DAV:  73    -0.358243752024E+04    0.10275E+01   -0.42579E-01  6144   0.602E-01    0.130E+01
DAV:  74    -0.358253320916E+04   -0.95689E-01   -0.51266E-01  6912   0.270E-01    0.143E+01
DAV:  75    -0.358255204890E+04   -0.18840E-01   -0.11564E-02  6272   0.879E-02    0.143E+01
DAV:  76    -0.358792920681E+04   -0.53772E+01   -0.19961E+00  6528   0.144E+00    0.114E+01
DAV:  77    -0.358760840957E+04    0.32080E+00   -0.55674E-01  5888   0.607E-01    0.109E+01
DAV:  78    -0.358822325639E+04   -0.61485E+00   -0.35471E-01  6144   0.671E-01    0.106E+01
DAV:  79    -0.358972448526E+04   -0.15012E+01   -0.81191E-01  6400   0.855E-01    0.105E+01
DAV:  80    -0.358987837177E+04   -0.15389E+00   -0.17722E-01  6400   0.292E-01    0.105E+01
DAV:  81    -0.358996285409E+04   -0.84482E-01   -0.80389E-01  5888   0.824E-01    0.982E+00
DAV:  82    -0.359040445705E+04   -0.44160E+00   -0.51473E-01  5888   0.532E-01    0.937E+00
DAV:  83    -0.359038015119E+04    0.24306E-01   -0.36670E-01  5888   0.358E-01    0.920E+00
DAV:  84    -0.359028653927E+04    0.93612E-01   -0.82128E-02  6272   0.248E-01    0.929E+00
DAV:  85    -0.359026607054E+04    0.20469E-01   -0.15498E-02  5888   0.978E-02    0.906E+00
DAV:  86    -0.359048031674E+04   -0.21425E+00   -0.95825E-01  6784   0.815E-01    0.100E+01
DAV:  87    -0.359058417810E+04   -0.10386E+00   -0.13991E+00  6016   0.536E-01    0.132E+01
DAV:  88    -0.359041468764E+04    0.16949E+00   -0.83347E-02  6016   0.263E-01    0.131E+01
DAV:  89    -0.359010793329E+04    0.30675E+00   -0.10433E-01  6144   0.254E-01    0.126E+01
DAV:  90    -0.358956347397E+04    0.54446E+00   -0.16491E+00  6400   0.585E-01    0.113E+01
DAV:  91    -0.359134357192E+04   -0.17801E+01   -0.25540E+01  6528   0.186E+00    0.676E+00
DAV:  92    -0.359054572521E+04    0.79785E+00   -0.21303E+00  5632   0.785E-01    0.599E+00
DAV:  93    -0.359032637756E+04    0.21935E+00   -0.43702E-01  6400   0.590E-01    0.706E+00
DAV:  94    -0.359023043329E+04    0.95944E-01   -0.25617E-01  6400   0.299E-01    0.584E+00
DAV:  95    -0.359046809535E+04   -0.23766E+00   -0.19056E-01  6016   0.271E-01    0.584E+00
DAV:  96    -0.359063955376E+04   -0.17146E+00   -0.58653E-01  6144   0.644E-01    0.472E+00
DAV:  97    -0.359081554064E+04   -0.17599E+00   -0.14139E-01  6016   0.393E-01    0.457E+00
DAV:  98    -0.359092309244E+04   -0.10755E+00   -0.61875E-02  6144   0.312E-01    0.466E+00
DAV:  99    -0.359095583436E+04   -0.32742E-01   -0.77409E-02  6272   0.353E-01    0.499E+00
DAV: 100    -0.359079042048E+04    0.16541E+00   -0.86462E-02  6272   0.348E-01    0.551E+00
DAV: 101    -0.359147631836E+04   -0.68590E+00   -0.75092E-01  6272   0.943E-01    0.426E+00
DAV: 102    -0.359168734042E+04   -0.21102E+00   -0.30305E-01  5888   0.486E-01    0.438E+00
DAV: 103    -0.359174465404E+04   -0.57314E-01   -0.14828E-01  6016   0.350E-01    0.450E+00
DAV: 104    -0.359179737358E+04   -0.52720E-01   -0.76589E-02  6016   0.222E-01    0.446E+00
DAV: 105    -0.359173141682E+04    0.65957E-01   -0.21066E-02  6144   0.256E-01    0.438E+00
DAV: 106    -0.359184034118E+04   -0.10892E+00   -0.11008E-01  6016   0.391E-01    0.396E+00
DAV: 107    -0.359168158792E+04    0.15875E+00   -0.74740E-02  5888   0.664E-01    0.413E+00
DAV: 108    -0.359163400092E+04    0.47587E-01   -0.74403E-02  6144   0.545E-01    0.420E+00
DAV: 109    -0.359158059403E+04    0.53407E-01   -0.49533E-02  6272   0.360E-01    0.434E+00
DAV: 110    -0.359155239194E+04    0.28202E-01   -0.23614E-02  6272   0.208E-01    0.441E+00
DAV: 111    -0.359214031190E+04   -0.58792E+00   -0.93089E-01  5760   0.252E+00    0.312E+00
DAV: 112    -0.359210360082E+04    0.36711E-01   -0.33297E-01  5888   0.399E-01    0.304E+00
DAV: 113    -0.359204241864E+04    0.61182E-01   -0.32228E-02  6400   0.257E-01    0.316E+00
DAV: 114    -0.359194605105E+04    0.96368E-01   -0.31729E-02  6272   0.398E-01    0.320E+00
DAV: 115    -0.359188637255E+04    0.59678E-01   -0.26310E-02  6528   0.290E-01    0.325E+00
DAV: 116    -0.359181261646E+04    0.73756E-01   -0.70107E-02  6528   0.690E-01    0.325E+00
DAV: 117    -0.359182058323E+04   -0.79668E-02   -0.59756E-02  6144   0.272E-01    0.323E+00
DAV: 118    -0.359184644986E+04   -0.25867E-01   -0.17223E-02  6144   0.245E-01    0.301E+00
DAV: 119    -0.359189862812E+04   -0.52178E-01   -0.25034E-02  6528   0.377E-01    0.255E+00
DAV: 120    -0.359193486159E+04   -0.36233E-01   -0.31449E-02  6656   0.339E-01    0.202E+00
DAV: 121    -0.359193114228E+04    0.37193E-02   -0.24299E-02  6528   0.280E-01    0.166E+00
DAV: 122    -0.359192795761E+04    0.31847E-02   -0.15597E-02  6016   0.124E-01    0.148E+00
DAV: 123    -0.359191904203E+04    0.89156E-02   -0.36855E-03  6144   0.827E-02    0.138E+00
DAV: 124    -0.359190703099E+04    0.12011E-01   -0.41645E-03  6272   0.122E-01    0.126E+00
DAV: 125    -0.359189597850E+04    0.11052E-01   -0.57522E-03  6528   0.128E-01    0.116E+00
DAV: 126    -0.359189235841E+04    0.36201E-02   -0.42717E-03  5888   0.755E-02    0.118E+00
DAV: 127    -0.359189111230E+04    0.12461E-02   -0.10836E-03  5632   0.277E-02    0.118E+00
DAV: 128    -0.359189114534E+04   -0.33044E-04   -0.17272E-04  5888   0.175E-02    0.118E+00
DAV: 129    -0.359189184624E+04   -0.70089E-03   -0.62404E-04  6400   0.361E-02    0.118E+00
DAV: 130    -0.359189425497E+04   -0.24087E-02   -0.69603E-04  5760   0.298E-02    0.115E+00
DAV: 131    -0.359208277759E+04   -0.18852E+00   -0.23765E+00  6528   0.844E-01    0.752E+00
DAV: 132    -0.359185192530E+04    0.23085E+00   -0.42125E+00  6144   0.742E-01    0.161E+00
DAV: 133    -0.359188880364E+04   -0.36878E-01   -0.19075E-02  5760   0.148E-01    0.885E-01
DAV: 134    -0.359188691304E+04    0.18906E-02   -0.57180E-03  5888   0.105E-01    0.786E-01
DAV: 135    -0.359188069146E+04    0.62216E-02   -0.73788E-03  7040   0.113E-01    0.767E-01
DAV: 136    -0.359186334051E+04    0.17351E-01   -0.19175E-02  6144   0.254E-01    0.598E-01
DAV: 137    -0.359186456067E+04   -0.12202E-02   -0.66606E-03  6016   0.820E-02    0.593E-01
DAV: 138    -0.359186451957E+04    0.41107E-04   -0.12729E-03  6784   0.443E-02    0.547E-01
DAV: 139    -0.359186428262E+04    0.23694E-03   -0.10191E-03  6784   0.385E-02    0.523E-01
DAV: 140    -0.359186427465E+04    0.79702E-05   -0.11648E-03  7040   0.353E-02    0.512E-01
DAV: 141    -0.359186419235E+04    0.82306E-04   -0.79334E-04  7040   0.262E-02    0.504E-01
DAV: 142    -0.359186415769E+04    0.34656E-04   -0.81305E-04  7040   0.248E-02    0.496E-01
DAV: 143    -0.359186406593E+04    0.91757E-04   -0.28743E-03  6656   0.439E-02    0.484E-01
DAV: 144    -0.359186428274E+04   -0.21681E-03   -0.31046E-03  7168   0.392E-02    0.472E-01
DAV: 145    -0.359186468327E+04   -0.40052E-03   -0.91792E-04  6144   0.199E-02    0.467E-01
DAV: 146    -0.359186478599E+04   -0.10272E-03   -0.80446E-05  5632   0.919E-03    0.469E-01
DAV: 147    -0.359186482981E+04   -0.43821E-04   -0.18799E-04  6528   0.918E-03    0.466E-01
DAV: 148    -0.359186497898E+04   -0.14917E-03   -0.37231E-04  6912   0.986E-03    0.461E-01
DAV: 149    -0.359186503574E+04   -0.56762E-04   -0.50327E-05  6144   0.468E-03    0.460E-01
DAV: 150    -0.359186486850E+04    0.16725E-03   -0.23004E-04  6400   0.965E-03    0.462E-01
DAV: 151    -0.359186379642E+04    0.10721E-02   -0.46885E-03  6656   0.356E-02    0.478E-01
DAV: 152    -0.359186423360E+04   -0.43718E-03   -0.28741E-04  5632   0.158E-02    0.476E-01
DAV: 153    -0.359186411646E+04    0.11714E-03   -0.16904E-04  6400   0.807E-03    0.478E-01
DAV: 154    -0.359186411696E+04   -0.49757E-06   -0.81617E-05  6016   0.926E-03    0.478E-01
DAV: 155    -0.359186378210E+04    0.33485E-03   -0.10296E-02  6656   0.650E-02    0.467E-01
DAV: 156    -0.359186271906E+04    0.10630E-02   -0.27714E-02  6784   0.928E-02    0.437E-01
DAV: 157    -0.359186443803E+04   -0.17190E-02   -0.12353E-02  6656   0.556E-02    0.428E-01
DAV: 158    -0.359186658186E+04   -0.21438E-02   -0.10662E-03  5632   0.276E-02    0.435E-01
DAV: 159    -0.359186682781E+04   -0.24595E-03   -0.22124E-05  6272   0.472E-03    0.434E-01
DAV: 160    -0.359186687633E+04   -0.48514E-04   -0.51430E-05  6400   0.407E-03    0.433E-01
DAV: 161    -0.359186692065E+04   -0.44323E-04   -0.81552E-04  6400   0.167E-02    0.426E-01
DAV: 162    -0.359186694284E+04   -0.22194E-04   -0.87798E-04  6784   0.168E-02    0.429E-01
DAV: 163    -0.359186713657E+04   -0.19373E-03   -0.32472E-04  6784   0.101E-02    0.435E-01
DAV: 164    -0.359186721094E+04   -0.74366E-04   -0.26108E-04  6528   0.105E-02    0.446E-01
DAV: 165    -0.359186633594E+04    0.87500E-03   -0.26745E-03  6400   0.361E-02    0.481E-01
DAV: 166    -0.359186349228E+04    0.28437E-02   -0.10353E-02  6400   0.725E-02    0.587E-01
DAV: 167    -0.359186569808E+04   -0.22058E-02   -0.12121E-03  5632   0.270E-02    0.655E-01
DAV: 168    -0.359186510661E+04    0.59147E-03   -0.40204E-04  6272   0.197E-02    0.729E-01
DAV: 169    -0.359186545315E+04   -0.34654E-03   -0.11094E-04  5888   0.832E-03    0.743E-01
DAV: 170    -0.359186526157E+04    0.19158E-03   -0.36279E-05  6400   0.452E-03    0.746E-01
DAV: 171    -0.359186425292E+04    0.10086E-02   -0.13080E-03  6656   0.232E-02    0.763E-01
DAV: 172    -0.359186496889E+04   -0.71597E-03   -0.80993E-05  5632   0.795E-03    0.776E-01
DAV: 173    -0.359186505518E+04   -0.86290E-04   -0.27363E-04  6400   0.950E-03    0.766E-01
DAV: 174    -0.359186426894E+04    0.78624E-03   -0.50264E-03  6656   0.368E-02    0.720E-01
DAV: 175    -0.359186550229E+04   -0.12333E-02   -0.45825E-03  6528   0.332E-02    0.650E-01
DAV: 176    -0.359185684389E+04    0.86584E-02   -0.65283E-02  6400   0.151E-01    0.919E-01
DAV: 177    -0.359186636667E+04   -0.95228E-02   -0.44124E-03  5632   0.518E-02    0.934E-01
DAV: 178    -0.359186796949E+04   -0.16028E-02   -0.16952E-04  6144   0.132E-02    0.925E-01
DAV: 179    -0.359186842197E+04   -0.45248E-03   -0.18663E-05  6016   0.465E-03    0.923E-01
DAV: 180    -0.359186894447E+04   -0.52250E-03   -0.33914E-05  6016   0.733E-03    0.894E-01
DAV: 181    -0.359186977687E+04   -0.83240E-03   -0.26250E-04  6272   0.174E-02    0.821E-01
DAV: 182    -0.359187047425E+04   -0.69739E-03   -0.97446E-04  6400   0.266E-02    0.722E-01
DAV: 183    -0.359187046508E+04    0.91778E-05   -0.39664E-04  6528   0.137E-02    0.674E-01
DAV: 184    -0.359187029455E+04    0.17053E-03   -0.19758E-03  6400   0.242E-02    0.647E-01
DAV: 185    -0.359187012934E+04    0.16521E-03   -0.17429E-03  6656   0.203E-02    0.618E-01
DAV: 186    -0.359187007381E+04    0.55529E-04   -0.43209E-04  6528   0.157E-02    0.604E-01
DAV: 187    -0.359186997165E+04    0.10217E-03   -0.11181E-04  6016   0.139E-02    0.571E-01
DAV: 188    -0.359186939978E+04    0.57186E-03   -0.56077E-04  6272   0.174E-02    0.564E-01
DAV: 189    -0.359186991645E+04   -0.51667E-03   -0.44596E-05  5632   0.752E-03    0.563E-01
DAV: 190    -0.359186994465E+04   -0.28195E-04   -0.20411E-06  6144   0.163E-03    0.565E-01
DAV: 191    -0.359186993411E+04    0.10542E-04   -0.30243E-05  6272   0.524E-03    0.562E-01
DAV: 192    -0.359186988188E+04    0.52224E-04   -0.61503E-06  5888   0.263E-03    0.564E-01
DAV: 193    -0.359186991373E+04   -0.31844E-04   -0.36123E-05  6400   0.358E-03    0.569E-01
DAV: 194    -0.359186993050E+04   -0.16771E-04   -0.17605E-04  6400   0.740E-03    0.580E-01
DAV: 195    -0.359186983463E+04    0.95868E-04   -0.14758E-04  6784   0.587E-03    0.588E-01
DAV: 196    -0.359186825985E+04    0.15748E-02   -0.29013E-03  6144   0.385E-02    0.581E-01
DAV: 197    -0.359186964280E+04   -0.13830E-02   -0.66145E-04  6016   0.224E-02    0.593E-01
DAV: 198    -0.359186930036E+04    0.34245E-03   -0.35269E-05  6016   0.576E-03    0.592E-01
DAV: 199    -0.359186927509E+04    0.25269E-04   -0.33100E-06  5632   0.201E-03    0.593E-01
DAV: 200    -0.359186921366E+04    0.61430E-04   -0.35161E-06  5888   0.144E-03    0.595E-01
DAV: 201    -0.359186960102E+04   -0.38736E-03   -0.21519E-02  6016   0.954E-02    0.316E-01
DAV: 202    -0.359187293311E+04   -0.33321E-02   -0.31830E-03  5632   0.529E-02    0.267E-01
DAV: 203    -0.359187278577E+04    0.14733E-03   -0.80892E-04  6400   0.180E-02    0.230E-01
DAV: 204    -0.359187276483E+04    0.20946E-04   -0.27842E-04  6400   0.132E-02    0.224E-01
DAV: 205    -0.359187266580E+04    0.99027E-04   -0.18292E-04  6528   0.943E-03    0.223E-01
DAV: 206    -0.359187238884E+04    0.27696E-03   -0.13342E-03  6400   0.214E-02    0.228E-01
DAV: 207    -0.359187223840E+04    0.15044E-03   -0.27790E-03  6144   0.382E-02    0.203E-01
DAV: 208    -0.359187284403E+04   -0.60564E-03   -0.17078E-04  6016   0.113E-02    0.202E-01
DAV: 209    -0.359187295127E+04   -0.10723E-03   -0.16476E-05  6016   0.400E-03    0.200E-01
DAV: 210    -0.359187300280E+04   -0.51532E-04   -0.37705E-05  6400   0.369E-03    0.197E-01
DAV: 211    -0.359187300230E+04    0.49666E-06   -0.86052E-04  6528   0.176E-02    0.217E-01
DAV: 212    -0.359187308096E+04   -0.78654E-04   -0.83922E-04  6528   0.148E-02    0.213E-01
DAV: 213    -0.359187329763E+04   -0.21667E-03   -0.68923E-04  6528   0.115E-02    0.203E-01
DAV: 214    -0.359187365606E+04   -0.35844E-03   -0.88067E-05  5632   0.939E-03    0.204E-01
DAV: 215    -0.359187367703E+04   -0.20966E-04   -0.33790E-05  6272   0.433E-03    0.204E-01
DAV: 216    -0.359187331656E+04    0.36047E-03   -0.23508E-03  6144   0.296E-02    0.198E-01
DAV: 217    -0.359187363630E+04   -0.31974E-03   -0.11287E-03  6656   0.146E-02    0.203E-01
DAV: 218    -0.359187370409E+04   -0.67785E-04   -0.15809E-03  6400   0.177E-02    0.206E-01
DAV: 219    -0.359187311259E+04    0.59150E-03   -0.61505E-03  6528   0.376E-02    0.189E-01
DAV: 220    -0.359187374966E+04   -0.63708E-03   -0.43339E-03  6784   0.270E-02    0.184E-01
DAV: 221    -0.359184785811E+04    0.25892E-01   -0.39337E-01  6016   0.309E-01    0.722E-01
DAV: 222    -0.359187697567E+04   -0.29118E-01   -0.18817E-02  5120   0.111E-01    0.712E-01
DAV: 223    -0.359187911056E+04   -0.21349E-02   -0.84204E-04  5120   0.280E-02    0.712E-01
DAV: 224    -0.359187926490E+04   -0.15434E-03   -0.20392E-04  6912   0.874E-03    0.713E-01
DAV: 225    -0.359187944766E+04   -0.18276E-03   -0.23327E-05  5376   0.482E-03    0.713E-01
DAV: 226    -0.359187912475E+04    0.32292E-03   -0.55186E-04  6400   0.182E-02    0.710E-01
DAV: 227    -0.359187949973E+04   -0.37498E-03   -0.66075E-03  6656   0.534E-02    0.660E-01
DAV: 228    -0.359187961481E+04   -0.11508E-03   -0.60692E-04  6400   0.182E-02    0.644E-01
DAV: 229    -0.359187946252E+04    0.15229E-03   -0.17492E-03  6528   0.223E-02    0.593E-01
DAV: 230    -0.359187727919E+04    0.21833E-02   -0.32245E-02  6656   0.930E-02    0.580E-01
DAV: 231    -0.359187363167E+04    0.36475E-02   -0.61767E-02  5888   0.148E-01    0.591E-01
DAV: 232    -0.359188007142E+04   -0.64397E-02   -0.16247E-02  5504   0.896E-02    0.420E-01
DAV: 233    -0.359188095332E+04   -0.88191E-03   -0.42493E-03  6272   0.335E-02    0.766E-01
DAV: 234    -0.359188068274E+04    0.27058E-03   -0.10775E-03  6400   0.247E-02    0.907E-01
DAV: 235    -0.359187997811E+04    0.70463E-03   -0.20667E-04  6272   0.141E-02    0.884E-01
DAV: 236    -0.359187956197E+04    0.41613E-03   -0.19642E-04  6400   0.129E-02    0.779E-01
DAV: 237    -0.359188146701E+04   -0.19050E-02   -0.31704E-03  6656   0.338E-02    0.147E+00
DAV: 238    -0.359187904329E+04    0.24237E-02   -0.10321E-03  6144   0.248E-02    0.136E+00
DAV: 239    -0.359187848004E+04    0.56325E-03   -0.15474E-04  6528   0.974E-03    0.125E+00
DAV: 240    -0.359187896885E+04   -0.48881E-03   -0.22156E-04  6656   0.875E-03    0.129E+00
DAV: 241    -0.359187595250E+04    0.30164E-02   -0.62943E-02  6144   0.158E-01    0.255E+00
DAV: 242    -0.359187383207E+04    0.21204E-02   -0.44120E-03  5376   0.620E-02    0.183E+00
DAV: 243    -0.359187493952E+04   -0.11074E-02   -0.34696E-04  6144   0.160E-02    0.163E+00
DAV: 244    -0.359187548653E+04   -0.54701E-03   -0.48168E-04  6272   0.145E-02    0.135E+00
DAV: 245    -0.359187561293E+04   -0.12640E-03   -0.34791E-03  6656   0.336E-02    0.822E-01
DAV: 246    -0.359187653876E+04   -0.92583E-03   -0.83270E-03  6272   0.481E-02    0.160E-01
DAV: 247    -0.359187924328E+04   -0.27045E-02   -0.14551E-03  5632   0.304E-02    0.210E-01
DAV: 248    -0.359187949734E+04   -0.25405E-03   -0.34128E-04  6400   0.105E-02    0.152E-01
DAV: 249    -0.359187963992E+04   -0.14258E-03   -0.13114E-04  6400   0.752E-03    0.107E-01
DAV: 250    -0.359187973410E+04   -0.94179E-04   -0.13826E-04  6784   0.845E-03    0.104E-01
DAV: 251    -0.359187975430E+04   -0.20205E-04   -0.46209E-05  6016   0.606E-03    0.897E-02
DAV: 252    -0.359187984030E+04   -0.86002E-04   -0.55639E-05  6528   0.377E-03    0.973E-02
DAV: 253    -0.359187986669E+04   -0.26389E-04   -0.12011E-05  6016   0.209E-03    0.998E-02
DAV: 254    -0.359187986755E+04   -0.85162E-06   -0.10117E-06  5120   0.102E-03
 augmentation electrons   1804.87750324011     
 soft         electrons  0.000000000000000E+000
 total        electrons   1804.87750324011     
 augmentation electrons -7.656030890960033E-002
 soft         electrons  0.000000000000000E+000
 total        electrons -7.656030890960033E-002
 augmentation electrons   1897.59959528426     
 soft         electrons  0.000000000000000E+000
 total        electrons   1897.59959528426     
 augmentation electrons   1840.97656334226     
 soft         electrons  0.000000000000000E+000
 total        electrons   1840.97656334226     
 augmentation electrons   56.1501479782104     
 soft         electrons   1748.72726812517     
 total        electrons   1804.87741610339     
 augmentation electrons   35.4087133206614     
 soft         electrons   1748.72726812517     
 total        electrons   56.9234018848436     
 translations:           0           1           0
   1 F= -.36295059E+04 E0= -.36294999E+04  d E =-.362951E+04  mag=    57.0000
 curvature:   0.00 expect dE= 0.000E+00 dE for cont linesearch  0.000E+00
 trial: gam= 0.00000 g(F)=  0.522E+00 g(S)=  0.000E+00 ort = 0.000E+00 (trialstep = 0.100E+01)
 search vector abs. value=  0.522E+00
 bond charge predicted
       N       E                     dE             d eps       ncg     rms          rms(c)
DAV:   1    -0.359166603731E+04    0.21383E+00   -0.45775E+01  5760   0.559E+00    0.490E+00
DAV:   2    -0.359224128537E+04   -0.57525E+00   -0.53256E+00  6272   0.123E+00    0.290E+00
DAV:   3    -0.359225713182E+04   -0.15846E-01   -0.12111E-01  5760   0.271E-01    0.143E+00
DAV:   4    -0.359225448853E+04    0.26433E-02   -0.23092E-02  6656   0.167E-01    0.883E-01
DAV:   5    -0.359225504712E+04   -0.55859E-03   -0.80200E-03  6272   0.996E-02    0.861E-01
DAV:   6    -0.359225294752E+04    0.20996E-02   -0.72394E-03  5888   0.119E-01    0.582E-01
DAV:   7    -0.359225398668E+04   -0.10392E-02   -0.73377E-03  6272   0.156E-01    0.137E+00
DAV:   8    -0.359225081717E+04    0.31695E-02   -0.86046E-03  5760   0.168E-01    0.268E-01
DAV:   9    -0.359225198768E+04   -0.11705E-02   -0.14992E-03  5632   0.471E-02    0.192E-01
DAV:  10    -0.359225193639E+04    0.51294E-04   -0.38116E-04  6528   0.220E-02    0.799E-02
DAV:  11    -0.359225205033E+04   -0.11394E-03   -0.23032E-04  6272   0.120E-02    0.637E-02
DAV:  12    -0.359225219397E+04   -0.14364E-03   -0.35729E-04  6400   0.124E-02    0.390E-02
DAV:  13    -0.359225236277E+04   -0.16880E-03   -0.39450E-04  6528   0.114E-02    0.472E-02
DAV:  14    -0.359225252355E+04   -0.16079E-03   -0.33103E-04  6784   0.836E-03    0.343E-02
DAV:  15    -0.359225268827E+04   -0.16472E-03   -0.30809E-04  6912   0.739E-03    0.336E-02
DAV:  16    -0.359225291842E+04   -0.23015E-03   -0.16496E-03  6400   0.196E-02    0.329E-02
DAV:  17    -0.359225321037E+04   -0.29196E-03   -0.22005E-03  6400   0.205E-02    0.356E-02
DAV:  18    -0.359225357759E+04   -0.36722E-03   -0.29708E-04  6016   0.121E-02    0.314E-02
DAV:  19    -0.359225363340E+04   -0.55812E-04   -0.22934E-05  6016   0.463E-03    0.303E-02
DAV:  20    -0.359225365836E+04   -0.24958E-04   -0.89544E-06  6400   0.182E-03    0.307E-02
DAV:  21    -0.359225333542E+04    0.32294E-03   -0.55224E-04  6400   0.133E-02    0.328E-02
DAV:  22    -0.359225299537E+04    0.34005E-03   -0.75403E-04  6400   0.121E-02    0.341E-02
DAV:  23    -0.359225114796E+04    0.18474E-02   -0.83537E-03  6272   0.444E-02    0.552E-02
DAV:  24    -0.359225195246E+04   -0.80450E-03   -0.23147E-02  6528   0.899E-02    0.118E-01
DAV:  25    -0.359225314350E+04   -0.11910E-02   -0.77518E-03  6528   0.363E-02    0.170E-01
DAV:  26    -0.359225399493E+04   -0.85142E-03   -0.29983E-03  6272   0.429E-02    0.167E-01
DAV:  27    -0.359225394969E+04    0.45233E-04   -0.19470E-04  6784   0.623E-03    0.199E-01
DAV:  28    -0.359225328642E+04    0.66327E-03   -0.25740E-03  6400   0.250E-02    0.242E-01
DAV:  29    -0.359225290246E+04    0.38396E-03   -0.25991E-03  7040   0.202E-02    0.291E-01
DAV:  30    -0.359225323365E+04   -0.33118E-03   -0.21567E-04  5632   0.136E-02    0.290E-01
DAV:  31    -0.359225324804E+04   -0.14395E-04   -0.69213E-06  6272   0.296E-03    0.290E-01
DAV:  32    -0.359225332070E+04   -0.72661E-04   -0.27458E-04  6528   0.107E-02    0.273E-01
DAV:  33    -0.359225321100E+04    0.10970E-03   -0.41389E-04  6400   0.103E-02    0.232E-01
DAV:  34    -0.359225321211E+04   -0.11143E-05   -0.17646E-03  6528   0.233E-02    0.164E-01
DAV:  35    -0.359225311255E+04    0.99561E-04   -0.35959E-03  6400   0.251E-02    0.149E-01
DAV:  36    -0.359225315448E+04   -0.41931E-04   -0.16261E-03  6400   0.150E-02    0.145E-01
DAV:  37    -0.359225327911E+04   -0.12462E-03   -0.34828E-04  6144   0.115E-02    0.131E-01
DAV:  38    -0.359225333802E+04   -0.58909E-04   -0.48443E-05  6016   0.469E-03    0.128E-01
DAV:  39    -0.359225335015E+04   -0.12138E-04   -0.32804E-06  5376   0.183E-03    0.128E-01
DAV:  40    -0.359225335918E+04   -0.90270E-05   -0.33002E-05  6400   0.264E-03    0.137E-01
DAV:  41    -0.359225334830E+04    0.10879E-04   -0.36574E-06  6016   0.178E-03    0.137E-01
DAV:  42    -0.359225334427E+04    0.40312E-05   -0.83947E-08  4480   0.255E-04    0.137E-01
DAV:  43    -0.359225335122E+04   -0.69543E-05   -0.32193E-04  6528   0.882E-03    0.137E-01
DAV:  44    -0.359225310993E+04    0.24130E-03   -0.35293E-03  6400   0.249E-02    0.139E-01
DAV:  45    -0.359225284591E+04    0.26402E-03   -0.45491E-03  6656   0.247E-02    0.131E-01
DAV:  46    -0.359225278930E+04    0.56616E-04   -0.39545E-03  6272   0.226E-02    0.125E-01
DAV:  47    -0.359225300142E+04   -0.21212E-03   -0.25429E-04  5632   0.140E-02    0.114E-01
DAV:  48    -0.359225293698E+04    0.64438E-04   -0.10922E-04  6528   0.574E-03    0.110E-01
DAV:  49    -0.359225287189E+04    0.65092E-04   -0.30229E-04  6144   0.648E-03    0.119E-01
DAV:  50    -0.359225279218E+04    0.79714E-04   -0.90603E-05  6400   0.798E-03    0.165E-01
DAV:  51    -0.359225280155E+04   -0.93775E-05   -0.24684E-04  6528   0.796E-03    0.168E-01
DAV:  52    -0.359225278999E+04    0.11563E-04   -0.64441E-04  6528   0.138E-02    0.121E-01
DAV:  53    -0.359225280142E+04   -0.11428E-04   -0.38980E-04  6528   0.915E-03    0.116E-01
DAV:  54    -0.359225282014E+04   -0.18722E-04   -0.37828E-04  6528   0.114E-02    0.905E-02
DAV:  55    -0.359225248810E+04    0.33204E-03   -0.24972E-03  6528   0.295E-02    0.123E-01
DAV:  56    -0.359225255670E+04   -0.68593E-04   -0.42798E-04  6144   0.139E-02    0.127E-01
DAV:  57    -0.359225245415E+04    0.10255E-03   -0.57188E-04  6400   0.101E-02    0.131E-01
DAV:  58    -0.359225239760E+04    0.56547E-04   -0.41826E-04  6144   0.851E-03    0.140E-01
DAV:  59    -0.359225217067E+04    0.22694E-03   -0.18361E-03  6272   0.188E-02    0.156E-01
DAV:  60    -0.359225204622E+04    0.12445E-03   -0.23697E-03  6272   0.191E-02    0.160E-01
DAV:  61    -0.359225187801E+04    0.16821E-03   -0.19623E-03  6400   0.230E-02    0.206E-01
DAV:  62    -0.359225152252E+04    0.35549E-03   -0.76741E-03  6528   0.443E-02    0.149E-01
DAV:  63    -0.359225229990E+04   -0.77739E-03   -0.29870E-04  5760   0.163E-02    0.144E-01
DAV:  64    -0.359225241459E+04   -0.11468E-03   -0.42959E-05  6016   0.609E-03    0.146E-01
DAV:  65    -0.359225239124E+04    0.23347E-04   -0.10772E-04  6400   0.550E-03    0.150E-01
DAV:  66    -0.359225238136E+04    0.98856E-05   -0.93854E-05  6272   0.580E-03    0.150E-01
DAV:  67    -0.359225108497E+04    0.12964E-02   -0.14306E-02  6528   0.647E-02    0.159E-01
DAV:  68    -0.359225282587E+04   -0.17409E-02   -0.34844E-03  6144   0.356E-02    0.166E-01
DAV:  69    -0.359225271755E+04    0.10832E-03   -0.71955E-03  6272   0.463E-02    0.162E-01
DAV:  70    -0.359225262957E+04    0.87980E-04   -0.10512E-02  6272   0.532E-02    0.168E-01
DAV:  71    -0.359225327194E+04   -0.64237E-03   -0.22199E-04  5632   0.165E-02    0.167E-01
DAV:  72    -0.359225308001E+04    0.19193E-03   -0.25668E-03  6528   0.277E-02    0.160E-01
DAV:  73    -0.359225341092E+04   -0.33091E-03   -0.13385E-03  6272   0.270E-02    0.126E-01
DAV:  74    -0.359225348988E+04   -0.78958E-04   -0.38683E-05  5888   0.597E-03    0.124E-01
DAV:  75    -0.359225340661E+04    0.83266E-04   -0.52617E-04  6400   0.123E-02    0.126E-01
DAV:  76    -0.359225348250E+04   -0.75894E-04   -0.70322E-04  6400   0.156E-02    0.124E-01
DAV:  77    -0.359225290261E+04    0.57989E-03   -0.72852E-03  6400   0.490E-02    0.107E-01
DAV:  78    -0.359225341480E+04   -0.51219E-03   -0.10895E-03  6528   0.179E-02    0.103E-01
DAV:  79    -0.359225328041E+04    0.13439E-03   -0.21143E-03  5760   0.187E-02    0.946E-02
DAV:  80    -0.359225294226E+04    0.33815E-03   -0.47844E-03  6272   0.310E-02    0.811E-02
DAV:  81    -0.359225328700E+04   -0.34475E-03   -0.20318E-03  6400   0.205E-02    0.814E-02
DAV:  82    -0.359225367171E+04   -0.38470E-03   -0.56161E-04  6016   0.207E-02    0.981E-02
DAV:  83    -0.359225364601E+04    0.25700E-04   -0.80625E-05  6016   0.741E-03    0.935E-02
DAV:  84    -0.359225362934E+04    0.16669E-04   -0.22026E-04  6272   0.106E-02    0.100E-01
DAV:  85    -0.359225356377E+04    0.65566E-04   -0.48893E-04  6528   0.110E-02    0.105E-01
DAV:  86    -0.359225351930E+04    0.44470E-04   -0.69562E-04  6144   0.202E-02    0.104E-01
DAV:  87    -0.359225021087E+04    0.33084E-02   -0.31360E-02  6528   0.984E-02    0.900E-02
DAV:  88    -0.359225360425E+04   -0.33934E-02   -0.23830E-03  5632   0.416E-02    0.669E-02
DAV:  89    -0.359225383595E+04   -0.23170E-03   -0.11811E-04  6016   0.994E-03    0.695E-02
DAV:  90    -0.359225379460E+04    0.41350E-04   -0.14609E-04  6272   0.589E-03    0.932E-02
DAV:  91    -0.359225380187E+04   -0.72649E-05   -0.23329E-05  5888   0.486E-03    0.850E-02
DAV:  92    -0.359225372941E+04    0.72458E-04   -0.64833E-04  6400   0.127E-02    0.105E-01
DAV:  93    -0.359225364079E+04    0.88621E-04   -0.21703E-03  6272   0.277E-02    0.661E-02
DAV:  94    -0.359225386951E+04   -0.22872E-03   -0.17923E-04  6528   0.830E-03    0.676E-02
DAV:  95    -0.359225395831E+04   -0.88802E-04   -0.43037E-05  6016   0.406E-03    0.738E-02
DAV:  96    -0.359225402857E+04   -0.70263E-04   -0.42646E-05  6400   0.389E-03    0.899E-02
DAV:  97    -0.359225386399E+04    0.16458E-03   -0.15755E-03  6400   0.210E-02    0.911E-02
DAV:  98    -0.359225398872E+04   -0.12473E-03   -0.52185E-04  6400   0.970E-03    0.949E-02
DAV:  99    -0.359225410167E+04   -0.11294E-03   -0.55187E-05  5888   0.665E-03    0.925E-02
DAV: 100    -0.359225412875E+04   -0.27082E-04   -0.14638E-05  6016   0.347E-03    0.904E-02
DAV: 101    -0.359225410706E+04    0.21684E-04   -0.34568E-05  6400   0.412E-03    0.832E-02
DAV: 102    -0.359225240934E+04    0.16977E-02   -0.22497E-02  6400   0.736E-02    0.261E-01
DAV: 103    -0.359225416394E+04   -0.17546E-02   -0.36863E-03  6144   0.505E-02    0.186E-01
DAV: 104    -0.359225428888E+04   -0.12494E-03   -0.22806E-04  6272   0.858E-03    0.164E-01
DAV: 105    -0.359225443173E+04   -0.14285E-03   -0.14346E-04  6016   0.101E-02    0.168E-01
DAV: 106    -0.359225434625E+04    0.85484E-04   -0.70250E-04  6400   0.155E-02    0.161E-01
DAV: 107    -0.359225436969E+04   -0.23444E-04   -0.12743E-03  6528   0.241E-02    0.208E-01
DAV: 108    -0.359225477263E+04   -0.40294E-03   -0.60323E-04  6144   0.189E-02    0.183E-01
DAV: 109    -0.359225466848E+04    0.10415E-03   -0.10946E-03  6400   0.183E-02    0.126E-01
DAV: 110    -0.359225475981E+04   -0.91335E-04   -0.17749E-04  6400   0.793E-03    0.134E-01
DAV: 111    -0.359225474989E+04    0.99258E-05   -0.17833E-04  6272   0.107E-02    0.147E-01
DAV: 112    -0.359225284229E+04    0.19076E-02   -0.21071E-02  6528   0.819E-02    0.466E-01
DAV: 113    -0.359225411393E+04   -0.12716E-02   -0.16727E-03  6016   0.341E-02    0.368E-01
DAV: 114    -0.359225419322E+04   -0.79286E-04   -0.45970E-04  6528   0.219E-02    0.338E-01
DAV: 115    -0.359225425965E+04   -0.66431E-04   -0.27079E-04  6528   0.157E-02    0.224E-01
DAV: 116    -0.359225444661E+04   -0.18696E-03   -0.39701E-04  6400   0.140E-02    0.280E-01
DAV: 117    -0.359225448235E+04   -0.35744E-04   -0.26909E-04  6272   0.140E-02    0.301E-01
DAV: 118    -0.359225408602E+04    0.39633E-03   -0.28560E-03  6528   0.264E-02    0.203E-01
DAV: 119    -0.359225390863E+04    0.17739E-03   -0.28967E-03  6528   0.228E-02    0.129E-01
DAV: 120    -0.359225415872E+04   -0.25009E-03   -0.84820E-04  6272   0.131E-02    0.806E-02
DAV: 121    -0.359225434869E+04   -0.18997E-03   -0.12049E-04  6016   0.102E-02    0.870E-02
DAV: 122    -0.359225423619E+04    0.11249E-03   -0.94673E-04  6528   0.198E-02    0.986E-02
DAV: 123    -0.359225408962E+04    0.14657E-03   -0.16774E-03  6528   0.217E-02    0.702E-02
DAV: 124    -0.359225445887E+04   -0.36926E-03   -0.15709E-04  5632   0.140E-02    0.691E-02
DAV: 125    -0.359225446152E+04   -0.26495E-05   -0.40463E-06  5760   0.213E-03    0.676E-02
DAV: 126    -0.359225444823E+04    0.13291E-04   -0.40692E-05  6272   0.372E-03    0.541E-02
DAV: 127    -0.359225435700E+04    0.91236E-04   -0.44689E-04  6528   0.139E-02    0.571E-02
DAV: 128    -0.359225441833E+04   -0.61336E-04   -0.22005E-04  6400   0.151E-02    0.657E-02
DAV: 129    -0.359225420995E+04    0.20838E-03   -0.83213E-04  6656   0.189E-02    0.710E-02
DAV: 130    -0.359225437482E+04   -0.16487E-03   -0.22657E-04  6144   0.814E-03    0.740E-02
DAV: 131    -0.359225448864E+04   -0.11382E-03   -0.35888E-05  6272   0.473E-03    0.770E-02
DAV: 132    -0.359225372997E+04    0.75867E-03   -0.76545E-03  6528   0.515E-02    0.949E-02
DAV: 133    -0.359225446063E+04   -0.73066E-03   -0.11167E-03  6400   0.225E-02    0.973E-02
DAV: 134    -0.359225454716E+04   -0.86526E-04   -0.95286E-04  6016   0.126E-02    0.934E-02
DAV: 135    -0.359225467903E+04   -0.13188E-03   -0.73648E-04  6400   0.188E-02    0.884E-02
DAV: 136    -0.359225469023E+04   -0.11193E-04   -0.22659E-04  6016   0.112E-02    0.993E-02
DAV: 137    -0.359225253157E+04    0.21587E-02   -0.11932E-02  6400   0.758E-02    0.703E-02
DAV: 138    -0.359225453867E+04   -0.20071E-02   -0.72164E-03  6144   0.551E-02    0.124E-01
DAV: 139    -0.359225503020E+04   -0.49153E-03   -0.36778E-04  6272   0.122E-02    0.122E-01
DAV: 140    -0.359225449335E+04    0.53685E-03   -0.63155E-03  6400   0.419E-02    0.126E-01
DAV: 141    -0.359225489688E+04   -0.40352E-03   -0.36853E-04  6528   0.133E-02    0.124E-01
DAV: 142    -0.359225474445E+04    0.15243E-03   -0.91166E-04  6272   0.171E-02    0.177E-01
DAV: 143    -0.359225457183E+04    0.17263E-03   -0.15782E-03  6272   0.203E-02    0.140E-01
DAV: 144    -0.359225409682E+04    0.47501E-03   -0.41506E-03  5888   0.247E-02    0.788E-02
DAV: 145    -0.359225392034E+04    0.17648E-03   -0.42044E-03  6144   0.220E-02    0.609E-02
DAV: 146    -0.359225441601E+04   -0.49567E-03   -0.60982E-04  6016   0.157E-02    0.641E-02
DAV: 147    -0.359225392055E+04    0.49546E-03   -0.41179E-03  6272   0.262E-02    0.145E-01
DAV: 148    -0.359225435406E+04   -0.43351E-03   -0.14809E-03  6400   0.309E-02    0.108E-01
DAV: 149    -0.359225434439E+04    0.96642E-05   -0.71526E-05  5760   0.821E-03    0.107E-01
DAV: 150    -0.359225408685E+04    0.25754E-03   -0.14691E-03  6400   0.264E-02    0.818E-02
DAV: 151    -0.359225413147E+04   -0.44617E-04   -0.28993E-04  6528   0.128E-02    0.783E-02
DAV: 152    -0.359225317345E+04    0.95802E-03   -0.96056E-03  6528   0.517E-02    0.163E-01
DAV: 153    -0.359225380766E+04   -0.63422E-03   -0.27440E-03  6016   0.385E-02    0.104E-01
DAV: 154    -0.359225390353E+04   -0.95868E-04   -0.96364E-05  5504   0.979E-03    0.106E-01
DAV: 155    -0.359225387192E+04    0.31615E-04   -0.85960E-06  6400   0.265E-03    0.973E-02
DAV: 156    -0.359225382276E+04    0.49154E-04   -0.45021E-04  6400   0.119E-02    0.867E-02
DAV: 157    -0.359225361811E+04    0.20465E-03   -0.97560E-04  6144   0.193E-02    0.607E-02
DAV: 158    -0.359225401978E+04   -0.40167E-03   -0.19833E-04  5504   0.127E-02    0.608E-02
DAV: 159    -0.359225397195E+04    0.47829E-04   -0.27060E-04  6656   0.790E-03    0.647E-02
DAV: 160    -0.359225405776E+04   -0.85806E-04   -0.52085E-05  6272   0.652E-03    0.718E-02
DAV: 161    -0.359225402284E+04    0.34919E-04   -0.17713E-05  6400   0.357E-03    0.705E-02
DAV: 162    -0.359225383914E+04    0.18370E-03   -0.62571E-04  6016   0.174E-02    0.635E-02
DAV: 163    -0.359225359021E+04    0.24893E-03   -0.20397E-03  6528   0.268E-02    0.890E-02
DAV: 164    -0.359225438275E+04   -0.79254E-03   -0.71134E-04  5760   0.266E-02    0.852E-02
DAV: 165    -0.359225429409E+04    0.88655E-04   -0.50606E-05  5760   0.722E-03    0.858E-02
DAV: 166    -0.359225410584E+04    0.18825E-03   -0.69754E-04  6272   0.160E-02    0.999E-02
DAV: 167    -0.359225324870E+04    0.85714E-03   -0.16092E-02  6144   0.668E-02    0.509E-02
DAV: 168    -0.359225399796E+04   -0.74926E-03   -0.30301E-03  5888   0.491E-02    0.385E-02
DAV: 169    -0.359225392390E+04    0.74061E-04   -0.26807E-03  6400   0.300E-02    0.404E-02
DAV: 170    -0.359225406054E+04   -0.13664E-03   -0.26424E-03  6272   0.256E-02    0.561E-02
DAV: 171    -0.359225479122E+04   -0.73069E-03   -0.55627E-04  6016   0.160E-02    0.522E-02
DAV: 172    -0.359225510320E+04   -0.31198E-03   -0.10580E-04  5632   0.103E-02    0.737E-02
DAV: 173    -0.359225516348E+04   -0.60277E-04   -0.18388E-05  5888   0.437E-03    0.730E-02
DAV: 174    -0.359225507639E+04    0.87088E-04   -0.18881E-04  6144   0.104E-02    0.770E-02
DAV: 175    -0.359225514246E+04   -0.66070E-04   -0.47505E-05  6400   0.406E-03    0.747E-02
DAV: 176    -0.359225518904E+04   -0.46579E-04   -0.90319E-06  6016   0.238E-03    0.728E-02
DAV: 177    -0.359225510455E+04    0.84485E-04   -0.33833E-04  6400   0.114E-02    0.754E-02
DAV: 178    -0.359225525313E+04   -0.14858E-03   -0.26867E-05  5376   0.617E-03    0.759E-02
DAV: 179    -0.359225497161E+04    0.28152E-03   -0.89532E-04  6144   0.210E-02    0.870E-02
DAV: 180    -0.359225506273E+04   -0.91125E-04   -0.46948E-04  6144   0.119E-02    0.693E-02
DAV: 181    -0.359225493785E+04    0.12488E-03   -0.10151E-03  5760   0.185E-02    0.656E-02
DAV: 182    -0.359225418473E+04    0.75312E-03   -0.57600E-03  5632   0.472E-02    0.814E-02
DAV: 183    -0.359225554712E+04   -0.13624E-02   -0.72472E-04  5120   0.237E-02    0.863E-02
DAV: 184    -0.359225581612E+04   -0.26900E-03   -0.17920E-04  5504   0.130E-02    0.828E-02
DAV: 185    -0.359225578951E+04    0.26617E-04   -0.80968E-06  5504   0.210E-03    0.815E-02
DAV: 186    -0.359225580384E+04   -0.14338E-04   -0.13738E-04  6016   0.799E-03    0.752E-02
DAV: 187    -0.359225554774E+04    0.25610E-03   -0.59905E-04  5888   0.206E-02    0.121E-01
DAV: 188    -0.359225586138E+04   -0.31363E-03   -0.19327E-04  5760   0.139E-02    0.109E-01
DAV: 189    -0.359225586657E+04   -0.51952E-05   -0.66312E-05  6272   0.411E-03    0.101E-01
DAV: 190    -0.359225569875E+04    0.16782E-03   -0.52816E-04  6016   0.160E-02    0.862E-02
DAV: 191    -0.359225591983E+04   -0.22108E-03   -0.80974E-05  5888   0.809E-03    0.736E-02
DAV: 192    -0.359225593408E+04   -0.14251E-04   -0.20382E-04  6016   0.119E-02    0.672E-02
DAV: 193    -0.359225588362E+04    0.50458E-04   -0.14671E-04  5760   0.120E-02    0.888E-02
DAV: 194    -0.359225592550E+04   -0.41879E-04   -0.26487E-05  6272   0.341E-03    0.889E-02
DAV: 195    -0.359225596644E+04   -0.40939E-04   -0.54472E-06  5504   0.267E-03    0.892E-02
DAV: 196    -0.359225596509E+04    0.13533E-05   -0.42230E-06  5760   0.151E-03    0.877E-02
DAV: 197    -0.359225556323E+04    0.40186E-03   -0.14436E-03  5888   0.265E-02    0.818E-02
DAV: 198    -0.359225608398E+04   -0.52075E-03   -0.14257E-04  5376   0.124E-02    0.797E-02
DAV: 199    -0.359225612126E+04   -0.37280E-04   -0.75233E-06  5760   0.294E-03    0.831E-02
DAV: 200    -0.359225611541E+04    0.58439E-05   -0.11882E-05  5888   0.276E-03    0.821E-02
DAV: 201    -0.359225608133E+04    0.34079E-04   -0.71176E-05  6016   0.439E-03    0.953E-02
DAV: 202    -0.359225586051E+04    0.22082E-03   -0.82103E-04  6272   0.196E-02    0.150E-01
DAV: 203    -0.359225601713E+04   -0.15662E-03   -0.11024E-04  6016   0.784E-03    0.149E-01
DAV: 204    -0.359225600992E+04    0.72091E-05   -0.11942E-04  5888   0.715E-03    0.146E-01
DAV: 205    -0.359225574522E+04    0.26470E-03   -0.89022E-04  6016   0.211E-02    0.121E-01
DAV: 206    -0.359225591527E+04   -0.17005E-03   -0.11003E-04  5376   0.114E-02    0.119E-01
DAV: 207    -0.359225591481E+04    0.46032E-06   -0.11721E-04  6144   0.723E-03    0.870E-02
DAV: 208    -0.359225586315E+04    0.51661E-04   -0.33445E-04  6016   0.135E-02    0.725E-02
DAV: 209    -0.359225585777E+04    0.53781E-05   -0.50226E-05  5632   0.833E-03    0.762E-02
DAV: 210    -0.359225586659E+04   -0.88246E-05   -0.16706E-05  6016   0.296E-03    0.752E-02
DAV: 211    -0.359225582670E+04    0.39891E-04   -0.28590E-04  6016   0.110E-02    0.750E-02
DAV: 212    -0.359225449667E+04    0.13300E-02   -0.63799E-03  5760   0.530E-02    0.605E-02
DAV: 213    -0.359225557584E+04   -0.10792E-02   -0.87786E-04  5376   0.284E-02    0.463E-02
DAV: 214    -0.359225534716E+04    0.22868E-03   -0.23782E-03  6272   0.253E-02    0.592E-02
DAV: 215    -0.359225557114E+04   -0.22398E-03   -0.54169E-04  6144   0.135E-02    0.540E-02
DAV: 216    -0.359225568203E+04   -0.11089E-03   -0.38196E-04  6272   0.916E-03    0.574E-02
DAV: 217    -0.359225577396E+04   -0.91930E-04   -0.24169E-04  6400   0.923E-03    0.703E-02
DAV: 218    -0.359225575377E+04    0.20185E-04   -0.81357E-05  6144   0.619E-03    0.506E-02
DAV: 219    -0.359225576475E+04   -0.10973E-04   -0.12261E-04  6400   0.652E-03    0.545E-02
DAV: 220    -0.359225578436E+04   -0.19615E-04   -0.98348E-05  6016   0.544E-03    0.504E-02
DAV: 221    -0.359225578259E+04    0.17760E-05   -0.83071E-05  5760   0.347E-03    0.519E-02
DAV: 222    -0.359225577503E+04    0.75610E-05   -0.13096E-04  6400   0.599E-03    0.456E-02
DAV: 223    -0.359225580685E+04   -0.31827E-04   -0.24657E-05  6016   0.322E-03    0.469E-02
DAV: 224    -0.359225581587E+04   -0.90166E-05   -0.26955E-05  6144   0.273E-03    0.474E-02
DAV: 225    -0.359225581594E+04   -0.66066E-07   -0.64576E-06  5504   0.128E-03
 augmentation electrons   1804.90890380305     
 soft         electrons  0.000000000000000E+000
 total        electrons   1804.90890380305     
 augmentation electrons -7.690819859490344E-002
 soft         electrons  0.000000000000000E+000
 total        electrons -7.690819859490344E-002
 augmentation electrons   1940.66776992487     
 soft         electrons  0.000000000000000E+000
 total        electrons   1940.66776992487     
 augmentation electrons   1884.04473798287     
 soft         electrons  0.000000000000000E+000
 total        electrons   1884.04473798287     
 augmentation electrons   56.1936158395768     
 soft         electrons   1748.71522476237     
 total        electrons   1804.90884060195     
 augmentation electrons   35.4709826517144     
 soft         electrons   1748.71522476237     
 total        electrons   56.9230597532541     
 translations:           0           1           0
   2 F= -.36298996E+04 E0= -.36298957E+04  d E =-.393683E+00  mag=    57.0000
 trial-energy change:   -0.393683  1 .order   -0.387510   -0.521971   -0.253049
 step:   1.7576(harm=  1.9410)  dis= 0.05664  next Energy= -3629.998119 (dE=-0.492E+00)
 bond charge predicted
       N       E                     dE             d eps       ncg     rms          rms(c)
DAV:   1    -0.359204312511E+04    0.21269E+00   -0.26195E+01  5760   0.416E+00    0.366E+00
DAV:   2    -0.359237080331E+04   -0.32768E+00   -0.30178E+00  6144   0.879E-01    0.204E+00
DAV:   3    -0.359237864424E+04   -0.78409E-02   -0.63966E-02  5888   0.182E-01    0.905E-01
DAV:   4    -0.359237710169E+04    0.15426E-02   -0.65106E-03  6528   0.767E-02    0.582E-01
DAV:   5    -0.359237595048E+04    0.11512E-02   -0.28337E-03  5888   0.558E-02    0.400E-01
DAV:   6    -0.359237507413E+04    0.87635E-03   -0.29631E-03  5888   0.793E-02    0.276E-01
DAV:   7    -0.359237567851E+04   -0.60438E-03   -0.11524E-03  5888   0.494E-02    0.457E-01
DAV:   8    -0.359237507341E+04    0.60510E-03   -0.16104E-03  5888   0.685E-02    0.574E-02
DAV:   9    -0.359237521586E+04   -0.14245E-03   -0.25027E-04  5888   0.148E-02    0.353E-02
DAV:  10    -0.359237523047E+04   -0.14607E-04   -0.41812E-05  6144   0.756E-03    0.195E-02
DAV:  11    -0.359237525065E+04   -0.20186E-04   -0.67028E-05  6400   0.687E-03    0.246E-02
DAV:  12    -0.359237526792E+04   -0.17265E-04   -0.31319E-05  6784   0.432E-03    0.146E-02
DAV:  13    -0.359237528774E+04   -0.19820E-04   -0.30266E-05  6400   0.359E-03    0.124E-02
DAV:  14    -0.359237531081E+04   -0.23074E-04   -0.45638E-05  6528   0.413E-03    0.112E-02
DAV:  15    -0.359237533939E+04   -0.28574E-04   -0.91901E-05  6528   0.569E-03    0.115E-02
DAV:  16    -0.359237537225E+04   -0.32868E-04   -0.63296E-05  5888   0.421E-03    0.114E-02
DAV:  17    -0.359237534111E+04    0.31141E-04   -0.73746E-05  6272   0.725E-03    0.116E-02
DAV:  18    -0.359237538294E+04   -0.41828E-04   -0.18808E-04  6272   0.103E-02    0.118E-02
DAV:  19    -0.359237515534E+04    0.22760E-03   -0.25300E-03  6400   0.322E-02    0.217E-02
DAV:  20    -0.359237557003E+04   -0.41469E-03   -0.18602E-04  5632   0.137E-02    0.139E-02
DAV:  21    -0.359237554770E+04    0.22324E-04   -0.98877E-05  6144   0.797E-03    0.163E-02
DAV:  22    -0.359237554496E+04    0.27457E-05   -0.89490E-06  6144   0.221E-03    0.172E-02
DAV:  23    -0.359237544548E+04    0.99480E-04   -0.21991E-04  6400   0.928E-03    0.299E-02
DAV:  24    -0.359237534425E+04    0.10123E-03   -0.20867E-04  6656   0.916E-03    0.415E-02
DAV:  25    -0.359237526249E+04    0.81757E-04   -0.19022E-04  6144   0.757E-03    0.460E-02
DAV:  26    -0.359237524770E+04    0.14789E-04   -0.31176E-05  5632   0.551E-03    0.459E-02
DAV:  27    -0.359237522843E+04    0.19276E-04   -0.96465E-06  5760   0.201E-03    0.461E-02
DAV:  28    -0.359237520724E+04    0.21184E-04   -0.23480E-05  5504   0.272E-03    0.469E-02
DAV:  29    -0.359237518224E+04    0.25003E-04   -0.41449E-05  5632   0.355E-03    0.477E-02
DAV:  30    -0.359237516146E+04    0.20780E-04   -0.13915E-05  6144   0.228E-03    0.472E-02
DAV:  31    -0.359237514939E+04    0.12065E-04   -0.12932E-05  4608   0.184E-03    0.470E-02
DAV:  32    -0.359237513097E+04    0.18422E-04   -0.47811E-05  5888   0.410E-03    0.475E-02
DAV:  33    -0.359237510636E+04    0.24610E-04   -0.45280E-05  5248   0.343E-03    0.474E-02
DAV:  34    -0.359237508362E+04    0.22746E-04   -0.60625E-06  5632   0.256E-03    0.468E-02
DAV:  35    -0.359237507428E+04    0.93380E-05   -0.43277E-07  5120   0.785E-04    0.468E-02
DAV:  36    -0.359237507422E+04    0.58950E-07   -0.10278E-08  3584   0.712E-05
 augmentation electrons   1804.97476056294     
 soft         electrons  0.000000000000000E+000
 total        electrons   1804.97476056294     
 augmentation electrons -7.673413053197158E-002
 soft         electrons  0.000000000000000E+000
 total        electrons -7.673413053197158E-002
 augmentation electrons   2003.46462560135     
 soft         electrons  0.000000000000000E+000
 total        electrons   2003.46462560135     
 augmentation electrons   1946.84159365935     
 soft         electrons  0.000000000000000E+000
 total        electrons   1946.84159365935     
 augmentation electrons   56.2681402140947     
 soft         electrons   1748.70655856544     
 total        electrons   1804.97469877953     
 augmentation electrons   35.5133073778201     
 soft         electrons   1748.70655856544     
 total        electrons   56.9232360046276     
 translations:           0           1           0
   3 F= -.36300289E+04 E0= -.36300265E+04  d E =-.522963E+00  mag=    57.0000
 curvature:  -0.93 expect dE=-0.532E+00 dE for cont linesearch -0.120E-01
 trial: gam= 0.93443 g(F)=  0.570E+00 g(S)=  0.000E+00 ort = 0.818E-01 (trialstep = 0.510E+00)
 search vector abs. value=  0.118E+01
 bond charge predicted
       N       E                     dE             d eps       ncg     rms          rms(c)
DAV:   1    -0.359215766548E+04    0.21741E+00   -0.30261E+01  5888   0.524E+00    0.343E+00
DAV:   2    -0.359246179107E+04   -0.30413E+00   -0.29007E+00  5888   0.953E-01    0.196E+00
DAV:   3    -0.359246588714E+04   -0.40961E-02   -0.63207E-02  6144   0.185E-01    0.866E-01
DAV:   4    -0.359246328635E+04    0.26008E-02   -0.54531E-03  6144   0.632E-02    0.580E-01
DAV:   5    -0.359246082187E+04    0.24645E-02   -0.33327E-03  6144   0.719E-02    0.250E-01
DAV:   6    -0.359246075393E+04    0.67934E-04   -0.21617E-03  6272   0.469E-02    0.713E-02
DAV:   7    -0.359246077879E+04   -0.24855E-04   -0.50206E-04  6016   0.236E-02    0.480E-02
DAV:   8    -0.359246078732E+04   -0.85353E-05   -0.45154E-05  6528   0.665E-03    0.347E-02
DAV:   9    -0.359246079468E+04   -0.73513E-05   -0.62642E-05  6272   0.934E-03    0.252E-02
DAV:  10    -0.359246080818E+04   -0.13502E-04   -0.46090E-05  6400   0.593E-03    0.151E-02
DAV:  11    -0.359246082693E+04   -0.18755E-04   -0.36505E-05  7040   0.446E-03    0.118E-02
DAV:  12    -0.359246084559E+04   -0.18659E-04   -0.24655E-05  6400   0.333E-03    0.114E-02
DAV:  13    -0.359246087180E+04   -0.26206E-04   -0.84782E-05  6656   0.608E-03    0.112E-02
DAV:  14    -0.359246090314E+04   -0.31341E-04   -0.10763E-04  6656   0.612E-03    0.118E-02
DAV:  15    -0.359246091533E+04   -0.12188E-04   -0.16031E-05  5632   0.426E-03    0.112E-02
DAV:  16    -0.359246092097E+04   -0.56452E-05   -0.22247E-06  4992   0.108E-03    0.111E-02
DAV:  17    -0.359246091650E+04    0.44671E-05   -0.45084E-04  6400   0.151E-02    0.149E-02
DAV:  18    -0.359246080318E+04    0.11332E-03   -0.13361E-03  6528   0.230E-02    0.226E-02
DAV:  19    -0.359246105782E+04   -0.25464E-03   -0.28844E-04  6528   0.107E-02    0.226E-02
DAV:  20    -0.359246115087E+04   -0.93047E-04   -0.11601E-04  6144   0.105E-02    0.226E-02
DAV:  21    -0.359246112483E+04    0.26036E-04   -0.46217E-05  6272   0.394E-03    0.231E-02
DAV:  22    -0.359246084209E+04    0.28275E-03   -0.10410E-03  6400   0.206E-02    0.277E-02
DAV:  23    -0.359246101067E+04   -0.16858E-03   -0.75562E-04  6144   0.236E-02    0.234E-02
DAV:  24    -0.359246108756E+04   -0.76899E-04   -0.23541E-05  6016   0.562E-03    0.229E-02
DAV:  25    -0.359246107699E+04    0.10575E-04   -0.16076E-05  6144   0.268E-03    0.230E-02
DAV:  26    -0.359246096661E+04    0.11038E-03   -0.32838E-04  6272   0.112E-02    0.272E-02
DAV:  27    -0.359246094951E+04    0.17105E-04   -0.62490E-05  5632   0.904E-03    0.294E-02
DAV:  28    -0.359246058511E+04    0.36439E-03   -0.10361E-03  6272   0.254E-02    0.411E-02
DAV:  29    -0.359246041760E+04    0.16752E-03   -0.18612E-03  6272   0.244E-02    0.438E-02
DAV:  30    -0.359246095514E+04   -0.53754E-03   -0.12334E-03  6144   0.302E-02    0.463E-02
DAV:  31    -0.359246090629E+04    0.48849E-04   -0.69256E-05  6016   0.899E-03    0.443E-02
DAV:  32    -0.359246090714E+04   -0.84835E-06   -0.10303E-05  5376   0.173E-03    0.439E-02
DAV:  33    -0.359246092196E+04   -0.14824E-04   -0.24123E-06  4864   0.844E-04    0.440E-02
DAV:  34    -0.359246093578E+04   -0.13816E-04   -0.10812E-06  5504   0.976E-04    0.441E-02
DAV:  35    -0.359246094702E+04   -0.11242E-04   -0.19328E-05  6272   0.285E-03    0.441E-02
DAV:  36    -0.359246077510E+04    0.17192E-03   -0.54963E-04  6400   0.158E-02    0.441E-02
DAV:  37    -0.359246094952E+04   -0.17441E-03   -0.25748E-05  5888   0.496E-03    0.443E-02
DAV:  38    -0.359246099504E+04   -0.45525E-04   -0.35084E-06  5888   0.190E-03    0.436E-02
DAV:  39    -0.359246103334E+04   -0.38303E-04   -0.40070E-05  6400   0.444E-03    0.432E-02
DAV:  40    -0.359246094458E+04    0.88764E-04   -0.11015E-03  6272   0.210E-02    0.438E-02
DAV:  41    -0.359246088723E+04    0.57355E-04   -0.62774E-04  6144   0.116E-02    0.421E-02
DAV:  42    -0.359246089145E+04   -0.42262E-05   -0.73459E-05  5632   0.941E-03    0.394E-02
DAV:  43    -0.359246087863E+04    0.12823E-04   -0.31641E-04  6272   0.109E-02    0.401E-02
DAV:  44    -0.359246083866E+04    0.39971E-04   -0.21484E-05  5632   0.495E-03    0.391E-02
DAV:  45    -0.359246075059E+04    0.88070E-04   -0.93502E-05  6400   0.808E-03    0.396E-02
DAV:  46    -0.359246086356E+04   -0.11297E-03   -0.34598E-04  6528   0.118E-02    0.399E-02
DAV:  47    -0.359246085378E+04    0.97763E-05   -0.51691E-05  6400   0.355E-03    0.393E-02
DAV:  48    -0.359246080589E+04    0.47897E-04   -0.32140E-05  6272   0.513E-03    0.386E-02
DAV:  49    -0.359246084230E+04   -0.36411E-04   -0.69976E-06  6016   0.206E-03    0.387E-02
DAV:  50    -0.359246083541E+04    0.68843E-05   -0.18284E-05  6528   0.254E-03    0.384E-02
DAV:  51    -0.359246085389E+04   -0.18478E-04   -0.56535E-06  6016   0.182E-03    0.386E-02
DAV:  52    -0.359246085963E+04   -0.57406E-05   -0.15447E-05  6400   0.207E-03    0.385E-02
DAV:  53    -0.359246084833E+04    0.11300E-04   -0.76475E-07  4992   0.916E-04    0.382E-02
DAV:  54    -0.359246084526E+04    0.30718E-05   -0.85943E-07  4992   0.588E-04    0.381E-02
DAV:  55    -0.359246085489E+04   -0.96245E-05   -0.85017E-06  6272   0.225E-03    0.382E-02
DAV:  56    -0.359246077496E+04    0.79928E-04   -0.10878E-04  6272   0.842E-03    0.380E-02
DAV:  57    -0.359246087283E+04   -0.97873E-04   -0.10548E-04  6528   0.722E-03    0.384E-02
DAV:  58    -0.359246086260E+04    0.10232E-04   -0.26040E-05  6272   0.435E-03    0.382E-02
DAV:  59    -0.359246086326E+04   -0.66358E-06   -0.16611E-04  6528   0.741E-03    0.385E-02
DAV:  60    -0.359246082732E+04    0.35943E-04   -0.10444E-04  6400   0.468E-03    0.377E-02
DAV:  61    -0.359246080772E+04    0.19594E-04   -0.14936E-05  6016   0.303E-03    0.367E-02
DAV:  62    -0.359246061520E+04    0.19252E-03   -0.63743E-04  6400   0.182E-02    0.352E-02
DAV:  63    -0.359246087433E+04   -0.25913E-03   -0.64869E-05  5632   0.789E-03    0.350E-02
DAV:  64    -0.359246092851E+04   -0.54185E-04   -0.14575E-05  6016   0.373E-03    0.353E-02
DAV:  65    -0.359246092035E+04    0.81658E-05   -0.59217E-07  4608   0.580E-04    0.352E-02
DAV:  66    -0.359246093020E+04   -0.98492E-05   -0.10485E-04  6400   0.637E-03    0.359E-02
DAV:  67    -0.359246088741E+04    0.42781E-04   -0.50514E-04  6784   0.120E-02    0.362E-02
DAV:  68    -0.359246082321E+04    0.64206E-04   -0.32160E-04  6272   0.155E-02    0.340E-02
DAV:  69    -0.359246087850E+04   -0.55294E-04   -0.47604E-05  6528   0.455E-03    0.344E-02
DAV:  70    -0.359246084976E+04    0.28743E-04   -0.21019E-04  6144   0.883E-03    0.348E-02
DAV:  71    -0.359246091500E+04   -0.65242E-04   -0.96550E-05  6016   0.529E-03    0.351E-02
DAV:  72    -0.359246072998E+04    0.18502E-03   -0.61734E-04  6400   0.180E-02    0.379E-02
DAV:  73    -0.359246095104E+04   -0.22107E-03   -0.26755E-04  6272   0.113E-02    0.372E-02
DAV:  74    -0.359246090994E+04    0.41107E-04   -0.54649E-04  6016   0.119E-02    0.381E-02
DAV:  75    -0.359246107886E+04   -0.16892E-03   -0.69498E-05  5888   0.608E-03    0.391E-02
DAV:  76    -0.359246113329E+04   -0.54429E-04   -0.10477E-05  5888   0.265E-03    0.393E-02
DAV:  77    -0.359246113927E+04   -0.59806E-05   -0.62502E-05  6400   0.435E-03    0.396E-02
DAV:  78    -0.359246116119E+04   -0.21917E-04   -0.16273E-04  6272   0.997E-03    0.403E-02
DAV:  79    -0.359246114310E+04    0.18084E-04   -0.21787E-05  6016   0.536E-03    0.396E-02
DAV:  80    -0.359246114142E+04    0.16774E-05   -0.14094E-06  5376   0.789E-04    0.398E-02
DAV:  81    -0.359246107260E+04    0.68820E-04   -0.19489E-04  6272   0.922E-03    0.403E-02
DAV:  82    -0.359246106484E+04    0.77691E-05   -0.33111E-04  6272   0.936E-03    0.399E-02
DAV:  83    -0.359246103457E+04    0.30264E-04   -0.10080E-03  6528   0.150E-02    0.411E-02
DAV:  84    -0.359246126879E+04   -0.23421E-03   -0.81144E-05  5504   0.721E-03    0.425E-02
DAV:  85    -0.359246133313E+04   -0.64343E-04   -0.97452E-06  5888   0.345E-03    0.425E-02
DAV:  86    -0.359246132865E+04    0.44823E-05   -0.81177E-07  4992   0.562E-04    0.427E-02
DAV:  87    -0.359246133647E+04   -0.78291E-05   -0.21028E-04  6528   0.845E-03    0.440E-02
DAV:  88    -0.359246107844E+04    0.25804E-03   -0.14756E-03  5888   0.247E-02    0.454E-02
DAV:  89    -0.359246124059E+04   -0.16215E-03   -0.25036E-04  6528   0.912E-03    0.464E-02
DAV:  90    -0.359246141303E+04   -0.17244E-03   -0.42974E-05  5632   0.731E-03    0.467E-02
DAV:  91    -0.359246142454E+04   -0.11509E-04   -0.79430E-06  6272   0.192E-03    0.466E-02
DAV:  92    -0.359246142084E+04    0.36944E-05   -0.32058E-04  6016   0.108E-02    0.473E-02
DAV:  93    -0.359246121375E+04    0.20709E-03   -0.84217E-04  5760   0.224E-02    0.481E-02
DAV:  94    -0.359246140378E+04   -0.19003E-03   -0.32181E-05  5888   0.584E-03    0.485E-02
DAV:  95    -0.359246142137E+04   -0.17591E-04   -0.26819E-05  5376   0.282E-03    0.491E-02
DAV:  96    -0.359246144706E+04   -0.25681E-04   -0.23063E-05  6016   0.249E-03    0.494E-02
DAV:  97    -0.359245335907E+04    0.80880E-02   -0.73984E-02  5760   0.175E-01    0.110E-01
DAV:  98    -0.359246028838E+04   -0.69293E-02   -0.51503E-03  5120   0.636E-02    0.494E-02
DAV:  99    -0.359246069308E+04   -0.40470E-03   -0.26439E-04  5504   0.182E-02    0.434E-02
DAV: 100    -0.359246065370E+04    0.39388E-04   -0.64710E-05  6144   0.594E-03    0.422E-02
DAV: 101    -0.359246066990E+04   -0.16202E-04   -0.20571E-05  5632   0.234E-03    0.410E-02
DAV: 102    -0.359246047294E+04    0.19696E-03   -0.26357E-03  6144   0.277E-02    0.476E-02
DAV: 103    -0.359246063555E+04   -0.16261E-03   -0.12142E-04  5504   0.938E-03    0.443E-02
DAV: 104    -0.359246063024E+04    0.53022E-05   -0.33189E-05  6144   0.545E-03    0.425E-02
DAV: 105    -0.359246062285E+04    0.73977E-05   -0.78429E-05  6400   0.508E-03    0.405E-02
DAV: 106    -0.359246057926E+04    0.43583E-04   -0.33792E-04  6016   0.108E-02    0.369E-02
DAV: 107    -0.359246014672E+04    0.43255E-03   -0.48672E-03  5888   0.388E-02    0.435E-02
DAV: 108    -0.359246075508E+04   -0.60836E-03   -0.68095E-04  5760   0.170E-02    0.420E-02
DAV: 109    -0.359246093105E+04   -0.17597E-03   -0.15397E-04  6144   0.791E-03    0.416E-02
DAV: 110    -0.359246100751E+04   -0.76462E-04   -0.10506E-04  5760   0.546E-03    0.411E-02
DAV: 111    -0.359246106142E+04   -0.53906E-04   -0.30914E-05  6272   0.360E-03    0.418E-02
DAV: 112    -0.359246110621E+04   -0.44795E-04   -0.40335E-05  5888   0.561E-03    0.410E-02
DAV: 113    -0.359246109762E+04    0.85915E-05   -0.11517E-05  6144   0.229E-03    0.411E-02
DAV: 114    -0.359246109978E+04   -0.21613E-05   -0.49746E-06  5632   0.177E-03    0.411E-02
DAV: 115    -0.359246109796E+04    0.18226E-05   -0.31199E-06  5376   0.983E-04    0.411E-02
DAV: 116    -0.359246109944E+04   -0.14813E-05   -0.96994E-06  5888   0.181E-03    0.418E-02
DAV: 117    -0.359246110005E+04   -0.61200E-06   -0.47541E-05  6144   0.480E-03    0.432E-02
DAV: 118    -0.359246108955E+04    0.10501E-04   -0.93353E-06  5760   0.224E-03    0.437E-02
DAV: 119    -0.359246108328E+04    0.62738E-05   -0.80718E-06  5376   0.157E-03    0.442E-02
DAV: 120    -0.359246108272E+04    0.56102E-06   -0.24649E-06  5120   0.114E-03
 augmentation electrons   1805.07454627363     
 soft         electrons  0.000000000000000E+000
 total        electrons   1805.07454627363     
 augmentation electrons -7.621382935799299E-002
 soft         electrons  0.000000000000000E+000
 total        electrons -7.621382935799299E-002
 augmentation electrons   2115.33909194087     
 soft         electrons  0.000000000000000E+000
 total        electrons   2115.33909194087     
 augmentation electrons   2058.71605999887     
 soft         electrons  0.000000000000000E+000
 total        electrons   2058.71605999887     
 augmentation electrons   56.3661743466448     
 soft         electrons   1748.70829856931     
 total        electrons   1805.07447291596     
 augmentation electrons   35.5460473738748     
 soft         electrons   1748.70829856931     
 total        electrons   56.9237544525557     
 translations:           0           1           0
   4 F= -.36301247E+04 E0= -.36301236E+04  d E =-.958036E-01  mag=    57.0000
 trial-energy change:   -0.095804  1 .order   -0.088092   -0.329562    0.153378
 step:   0.3583(harm=  0.3481)  dis= 0.01629  next Energy= -3630.147283 (dE=-0.118E+00)
 bond charge predicted
       N       E                     dE             d eps       ncg     rms          rms(c)
DAV:   1    -0.359246332481E+04   -0.22415E-02   -0.27184E+00  6016   0.154E+00    0.948E-01
DAV:   2    -0.359248465420E+04   -0.21329E-01   -0.21616E-01  5632   0.279E-01    0.499E-01
DAV:   3    -0.359248625763E+04   -0.16034E-02   -0.81269E-03  5376   0.678E-02    0.265E-01
DAV:   4    -0.359248623326E+04    0.24363E-04   -0.10937E-03  5760   0.383E-02    0.175E-01
DAV:   5    -0.359248616336E+04    0.69903E-04   -0.31224E-04  6144   0.199E-02    0.124E-01
DAV:   6    -0.359248612692E+04    0.36441E-04   -0.46425E-04  6144   0.309E-02    0.116E-01
DAV:   7    -0.359248611783E+04    0.90864E-05   -0.30058E-04  5760   0.251E-02    0.371E-02
DAV:   8    -0.359248613128E+04   -0.13447E-04   -0.86276E-05  6016   0.104E-02    0.204E-02
DAV:   9    -0.359248614150E+04   -0.10220E-04   -0.27411E-05  6272   0.522E-03    0.122E-02
DAV:  10    -0.359248615497E+04   -0.13474E-04   -0.26086E-05  6528   0.357E-03    0.109E-02
DAV:  11    -0.359248617160E+04   -0.16624E-04   -0.36516E-05  5888   0.379E-03    0.102E-02
DAV:  12    -0.359248618637E+04   -0.14770E-04   -0.19148E-05  5888   0.246E-03    0.969E-03
DAV:  13    -0.359248618470E+04    0.16718E-05   -0.29272E-06  5120   0.182E-03    0.957E-03
DAV:  14    -0.359248618448E+04    0.21065E-06   -0.46909E-08  4352   0.154E-04
 augmentation electrons   1805.04351444338     
 soft         electrons  0.000000000000000E+000
 total        electrons   1805.04351444338     
 augmentation electrons -7.667663651979029E-002
 soft         electrons  0.000000000000000E+000
 total        electrons -7.667663651979029E-002
 augmentation electrons   2074.20613212157     
 soft         electrons  0.000000000000000E+000
 total        electrons   2074.20613212157     
 augmentation electrons   2017.58310017957     
 soft         electrons  0.000000000000000E+000
 total        electrons   2017.58310017957     
 augmentation electrons   56.3349087846382     
 soft         electrons   1748.70853512265     
 total        electrons   1805.04344390729     
 augmentation electrons   35.5356853898293     
 soft         electrons   1748.70853512265     
 total        electrons   56.9232920858595     
 translations:           0           1           0
   5 F= -.36301471E+04 E0= -.36301457E+04  d E =-.118256E+00  mag=    57.0000
 curvature:  -0.32 expect dE=-0.475E-01 dE for cont linesearch -0.101E-03
 trial: gam= 0.47150 g(F)=  0.150E+00 g(S)=  0.000E+00 ort =-0.194E-01 (trialstep = 0.480E+00)
 search vector abs. value=  0.394E+00
 bond charge predicted
       N       E                     dE             d eps       ncg     rms          rms(c)
DAV:   1    -0.359238620439E+04    0.99980E-01   -0.90213E+00  5760   0.285E+00    0.218E+00
DAV:   2    -0.359251811218E+04   -0.13191E+00   -0.11866E+00  6016   0.532E-01    0.114E+00
DAV:   3    -0.359252124272E+04   -0.31305E-02   -0.23176E-02  5760   0.102E-01    0.480E-01
DAV:   4    -0.359252068109E+04    0.56163E-03   -0.14793E-03  6144   0.296E-02    0.326E-01
DAV:   5    -0.359252001955E+04    0.66155E-03   -0.71934E-04  6144   0.342E-02    0.165E-01
DAV:   6    -0.359251993907E+04    0.80481E-04   -0.62748E-04  6656   0.289E-02    0.365E-02
DAV:   7    -0.359251996744E+04   -0.28369E-04   -0.20156E-04  5888   0.123E-02    0.219E-02
DAV:   8    -0.359251997540E+04   -0.79605E-05   -0.16201E-05  6912   0.348E-03    0.156E-02
DAV:   9    -0.359251998915E+04   -0.13749E-04   -0.34880E-05  6528   0.480E-03    0.116E-02
DAV:  10    -0.359252000539E+04   -0.16245E-04   -0.29625E-05  7040   0.379E-03    0.101E-02
DAV:  11    -0.359252001958E+04   -0.14191E-04   -0.15986E-05  5760   0.251E-03    0.981E-03
DAV:  12    -0.359252003444E+04   -0.14853E-04   -0.20726E-05  6016   0.270E-03    0.960E-03
DAV:  13    -0.359252005582E+04   -0.21380E-04   -0.84961E-05  6656   0.575E-03    0.100E-02
DAV:  14    -0.359252008114E+04   -0.25321E-04   -0.37319E-05  6272   0.338E-03    0.986E-03
DAV:  15    -0.359252004482E+04    0.36312E-04   -0.84335E-05  6400   0.738E-03    0.106E-02
DAV:  16    -0.359252008199E+04   -0.37170E-04   -0.10410E-04  6400   0.814E-03    0.102E-02
DAV:  17    -0.359251986051E+04    0.22148E-03   -0.23240E-03  6400   0.321E-02    0.204E-02
DAV:  18    -0.359252021888E+04   -0.35837E-03   -0.25974E-04  6016   0.174E-02    0.124E-02
DAV:  19    -0.359252020310E+04    0.15781E-04   -0.18070E-05  6016   0.270E-03    0.141E-02
DAV:  20    -0.359252021040E+04   -0.72971E-05   -0.11418E-04  6400   0.816E-03    0.151E-02
DAV:  21    -0.359251926985E+04    0.94055E-03   -0.66530E-03  5760   0.550E-02    0.369E-02
DAV:  22    -0.359252021402E+04   -0.94417E-03   -0.55954E-04  5632   0.190E-02    0.329E-02
DAV:  23    -0.359252046893E+04   -0.25491E-03   -0.73351E-05  5760   0.967E-03    0.324E-02
DAV:  24    -0.359252047769E+04   -0.87573E-05   -0.10989E-06  4864   0.874E-04    0.322E-02
DAV:  25    -0.359252048277E+04   -0.50833E-05   -0.27494E-06  5888   0.132E-03    0.321E-02
DAV:  26    -0.359252047799E+04    0.47757E-05   -0.57751E-05  6272   0.530E-03    0.321E-02
DAV:  27    -0.359252042875E+04    0.49243E-04   -0.18098E-04  6272   0.817E-03    0.319E-02
DAV:  28    -0.359252013820E+04    0.29055E-03   -0.12531E-03  6272   0.217E-02    0.338E-02
DAV:  29    -0.359252035097E+04   -0.21278E-03   -0.28635E-04  6016   0.170E-02    0.294E-02
DAV:  30    -0.359252037138E+04   -0.20406E-04   -0.10056E-05  5760   0.192E-03    0.297E-02
DAV:  31    -0.359252027333E+04    0.98048E-04   -0.94994E-04  6272   0.192E-02    0.315E-02
DAV:  32    -0.359252046312E+04   -0.18979E-03   -0.10993E-04  6144   0.112E-02    0.315E-02
DAV:  33    -0.359252042308E+04    0.40045E-04   -0.41564E-04  6272   0.134E-02    0.319E-02
DAV:  34    -0.359252049241E+04   -0.69332E-04   -0.15427E-04  5888   0.600E-03    0.327E-02
DAV:  35    -0.359252055392E+04   -0.61511E-04   -0.31183E-05  6400   0.352E-03    0.336E-02
DAV:  36    -0.359252057209E+04   -0.18169E-04   -0.27363E-05  5248   0.242E-03    0.336E-02
DAV:  37    -0.359252058131E+04   -0.92225E-05   -0.17787E-04  6528   0.668E-03    0.333E-02
DAV:  38    -0.359252063388E+04   -0.52567E-04   -0.14324E-05  6016   0.322E-03    0.339E-02
DAV:  39    -0.359252063891E+04   -0.50263E-05   -0.87296E-06  6272   0.225E-03    0.344E-02
DAV:  40    -0.359252053724E+04    0.10166E-03   -0.54101E-04  6528   0.132E-02    0.367E-02
DAV:  41    -0.359252041345E+04    0.12379E-03   -0.74689E-04  6272   0.124E-02    0.381E-02
DAV:  42    -0.359252048625E+04   -0.72805E-04   -0.55301E-05  5632   0.755E-03    0.351E-02
DAV:  43    -0.359252048045E+04    0.58027E-05   -0.19580E-06  5888   0.137E-03    0.351E-02
DAV:  44    -0.359252046312E+04    0.17330E-04   -0.10770E-04  6272   0.744E-03    0.356E-02
DAV:  45    -0.359252042012E+04    0.43000E-04   -0.16013E-04  6656   0.973E-03    0.411E-02
DAV:  46    -0.359252043256E+04   -0.12437E-04   -0.63078E-04  6656   0.144E-02    0.477E-02
DAV:  47    -0.359252045499E+04   -0.22434E-04   -0.41547E-05  5760   0.641E-03    0.466E-02
DAV:  48    -0.359252039514E+04    0.59852E-04   -0.26906E-04  6400   0.116E-02    0.478E-02
DAV:  49    -0.359252048887E+04   -0.93728E-04   -0.41658E-05  6144   0.565E-03    0.491E-02
DAV:  50    -0.359252050061E+04   -0.11742E-04   -0.92496E-06  5888   0.205E-03    0.491E-02
DAV:  51    -0.359252049507E+04    0.55430E-05   -0.32295E-05  6016   0.386E-03    0.487E-02
DAV:  52    -0.359252049586E+04   -0.79432E-06   -0.26053E-04  6528   0.907E-03    0.492E-02
DAV:  53    -0.359252047917E+04    0.16697E-04   -0.17476E-05  5888   0.412E-03    0.480E-02
DAV:  54    -0.359252046645E+04    0.12720E-04   -0.45898E-05  6016   0.467E-03    0.477E-02
DAV:  55    -0.359252046683E+04   -0.38159E-06   -0.13270E-04  6528   0.638E-03    0.472E-02
DAV:  56    -0.359252046775E+04   -0.91945E-06   -0.11059E-05  5760   0.302E-03    0.462E-02
DAV:  57    -0.359252044168E+04    0.26067E-04   -0.78699E-05  6272   0.640E-03    0.465E-02
DAV:  58    -0.359252043586E+04    0.58160E-05   -0.15390E-04  6400   0.843E-03    0.464E-02
DAV:  59    -0.359252046154E+04   -0.25673E-04   -0.51039E-05  6272   0.418E-03    0.470E-02
DAV:  60    -0.359252049278E+04   -0.31238E-04   -0.20763E-05  6016   0.424E-03    0.471E-02
DAV:  61    -0.359252048662E+04    0.61538E-05   -0.10559E-05  6144   0.223E-03    0.470E-02
DAV:  62    -0.359252042460E+04    0.62026E-04   -0.25423E-04  6144   0.121E-02    0.495E-02
DAV:  63    -0.359252047118E+04   -0.46580E-04   -0.28082E-04  6272   0.963E-03    0.500E-02
DAV:  64    -0.359252055840E+04   -0.87225E-04   -0.18255E-05  5376   0.439E-03    0.511E-02
DAV:  65    -0.359252053775E+04    0.20654E-04   -0.12325E-04  6528   0.611E-03    0.516E-02
DAV:  66    -0.359252058405E+04   -0.46304E-04   -0.70629E-06  5760   0.233E-03    0.525E-02
DAV:  67    -0.359252041369E+04    0.17036E-03   -0.19656E-03  6272   0.257E-02    0.551E-02
DAV:  68    -0.359252046068E+04   -0.46993E-04   -0.45693E-04  5632   0.187E-02    0.510E-02
DAV:  69    -0.359252043520E+04    0.25482E-04   -0.13769E-03  6016   0.223E-02    0.519E-02
DAV:  70    -0.359252041923E+04    0.15969E-04   -0.32398E-04  6272   0.866E-03    0.481E-02
DAV:  71    -0.359252040220E+04    0.17028E-04   -0.39673E-05  5632   0.590E-03    0.456E-02
DAV:  72    -0.359252033659E+04    0.65614E-04   -0.19249E-04  6144   0.993E-03    0.452E-02
DAV:  73    -0.359252041176E+04   -0.75174E-04   -0.21127E-05  5632   0.417E-03    0.457E-02
DAV:  74    -0.359252042980E+04   -0.18034E-04   -0.60790E-06  5888   0.167E-03    0.456E-02
DAV:  75    -0.359252041441E+04    0.15390E-04   -0.69767E-05  6528   0.437E-03    0.458E-02
DAV:  76    -0.359252045481E+04   -0.40408E-04   -0.19576E-05  5888   0.404E-03    0.461E-02
DAV:  77    -0.359251853093E+04    0.19239E-02   -0.19586E-02  6144   0.809E-02    0.680E-02
DAV:  78    -0.359252024932E+04   -0.17184E-02   -0.11880E-03  5120   0.360E-02    0.453E-02
DAV:  79    -0.359252024178E+04    0.75452E-05   -0.50315E-05  5888   0.588E-03    0.448E-02
DAV:  80    -0.359252024141E+04    0.36824E-06   -0.23036E-05  5504   0.249E-03    0.449E-02
DAV:  81    -0.359252018837E+04    0.53041E-04   -0.27125E-04  6016   0.983E-03    0.441E-02
DAV:  82    -0.359252008669E+04    0.10168E-03   -0.98750E-04  6272   0.162E-02    0.461E-02
DAV:  83    -0.359252031913E+04   -0.23244E-03   -0.72423E-05  5248   0.783E-03    0.480E-02
DAV:  84    -0.359252035273E+04   -0.33605E-04   -0.86984E-06  6144   0.212E-03    0.482E-02
DAV:  85    -0.359252037586E+04   -0.23129E-04   -0.11672E-05  6016   0.279E-03    0.482E-02
DAV:  86    -0.359252037698E+04   -0.11179E-05   -0.13046E-06  5888   0.978E-04    0.480E-02
DAV:  87    -0.359252030107E+04    0.75914E-04   -0.22558E-04  5888   0.126E-02    0.458E-02
DAV:  88    -0.359252038379E+04   -0.82720E-04   -0.30074E-05  5120   0.633E-03    0.452E-02
DAV:  89    -0.359252037924E+04    0.45450E-05   -0.48667E-04  6016   0.143E-02    0.450E-02
DAV:  90    -0.359252037426E+04    0.49832E-05   -0.82919E-05  6016   0.593E-03    0.432E-02
DAV:  91    -0.359252035336E+04    0.20895E-04   -0.31593E-05  5888   0.550E-03    0.417E-02
DAV:  92    -0.359252035526E+04   -0.18933E-05   -0.91543E-05  6528   0.622E-03    0.415E-02
DAV:  93    -0.359252034311E+04    0.12146E-04   -0.40633E-05  6016   0.404E-03    0.406E-02
DAV:  94    -0.359252032432E+04    0.18789E-04   -0.10716E-04  6016   0.547E-03    0.403E-02
DAV:  95    -0.359252031024E+04    0.14086E-04   -0.29177E-05  6016   0.312E-03    0.392E-02
DAV:  96    -0.359252029889E+04    0.11349E-04   -0.15067E-05  5632   0.197E-03    0.388E-02
DAV:  97    -0.359252023705E+04    0.61833E-04   -0.23764E-04  6016   0.108E-02    0.395E-02
DAV:  98    -0.359252022836E+04    0.86978E-05   -0.18924E-04  6272   0.729E-03    0.404E-02
DAV:  99    -0.359252029497E+04   -0.66612E-04   -0.58704E-05  6144   0.678E-03    0.413E-02
DAV: 100    -0.359252028630E+04    0.86720E-05   -0.30894E-05  5120   0.338E-03    0.415E-02
DAV: 101    -0.359252029144E+04   -0.51393E-05   -0.66388E-06  6016   0.238E-03    0.414E-02
DAV: 102    -0.359251984535E+04    0.44608E-03   -0.40474E-03  6144   0.368E-02    0.504E-02
DAV: 103    -0.359252015602E+04   -0.31067E-03   -0.34938E-04  5376   0.201E-02    0.415E-02
DAV: 104    -0.359252015848E+04   -0.24533E-05   -0.11305E-04  6144   0.700E-03    0.401E-02
DAV: 105    -0.359252013554E+04    0.22941E-04   -0.31612E-04  6016   0.924E-03    0.404E-02
DAV: 106    -0.359252021515E+04   -0.79615E-04   -0.10560E-04  6016   0.539E-03    0.420E-02
DAV: 107    -0.359251986444E+04    0.35071E-03   -0.24579E-03  5760   0.350E-02    0.413E-02
DAV: 108    -0.359252002769E+04   -0.16325E-03   -0.15235E-03  6016   0.240E-02    0.417E-02
DAV: 109    -0.359252016951E+04   -0.14182E-03   -0.11190E-04  5120   0.108E-02    0.370E-02
DAV: 110    -0.359252014815E+04    0.21369E-04   -0.23877E-05  6400   0.441E-03    0.363E-02
DAV: 111    -0.359252013020E+04    0.17950E-04   -0.20339E-04  6016   0.112E-02    0.355E-02
DAV: 112    -0.359252010315E+04    0.27047E-04   -0.48381E-04  5888   0.165E-02    0.359E-02
DAV: 113    -0.359252013384E+04   -0.30690E-04   -0.11325E-04  6400   0.714E-03    0.340E-02
DAV: 114    -0.359252007160E+04    0.62243E-04   -0.23756E-04  6272   0.117E-02    0.330E-02
DAV: 115    -0.359252005502E+04    0.16577E-04   -0.26766E-04  5888   0.107E-02    0.335E-02
DAV: 116    -0.359252007160E+04   -0.16580E-04   -0.81801E-05  6400   0.626E-03    0.322E-02
DAV: 117    -0.359251989393E+04    0.17767E-03   -0.82251E-04  5888   0.242E-02    0.330E-02
DAV: 118    -0.359252009428E+04   -0.20035E-03   -0.10508E-04  5632   0.101E-02    0.308E-02
DAV: 119    -0.359252010727E+04   -0.12990E-04   -0.17408E-05  6016   0.336E-03    0.309E-02
DAV: 120    -0.359252011098E+04   -0.37054E-05   -0.45965E-05  6144   0.436E-03    0.310E-02
DAV: 121    -0.359252012231E+04   -0.11333E-04   -0.45213E-06  5376   0.207E-03    0.307E-02
DAV: 122    -0.359251986398E+04    0.25833E-03   -0.17945E-03  6016   0.281E-02    0.345E-02
DAV: 123    -0.359252010936E+04   -0.24538E-03   -0.12472E-04  5632   0.979E-03    0.328E-02
DAV: 124    -0.359252014784E+04   -0.38480E-04   -0.35693E-05  6016   0.516E-03    0.327E-02
DAV: 125    -0.359252016542E+04   -0.17571E-04   -0.53416E-05  6016   0.638E-03    0.319E-02
DAV: 126    -0.359252016133E+04    0.40844E-05   -0.43315E-05  6144   0.394E-03    0.317E-02
DAV: 127    -0.359251970665E+04    0.45468E-03   -0.17747E-03  5760   0.338E-02    0.349E-02
DAV: 128    -0.359252008096E+04   -0.37431E-03   -0.26759E-04  5760   0.134E-02    0.312E-02
DAV: 129    -0.359252012656E+04   -0.45602E-04   -0.10402E-04  5504   0.642E-03    0.300E-02
DAV: 130    -0.359252016710E+04   -0.40533E-04   -0.17583E-05  5248   0.451E-03    0.291E-02
DAV: 131    -0.359252016786E+04   -0.76286E-06   -0.13157E-06  5632   0.961E-04
 augmentation electrons   1805.11392751103     
 soft         electrons  0.000000000000000E+000
[...]
 augmentation electrons -7.229285255797419E-002
 soft         electrons  0.000000000000000E+000
 total        electrons -7.229285255797419E-002
 augmentation electrons   1954.20265337133     
 soft         electrons  0.000000000000000E+000
 total        electrons   1954.20265337133     
 augmentation electrons   1897.57962142933     
 soft         electrons  0.000000000000000E+000
 total        electrons   1897.57962142933     
 augmentation electrons   56.1680102620493     
 soft         electrons   1748.71268576626     
 total        electrons   1804.88069602831     
 augmentation electrons   35.5871848231817     
 soft         electrons   1748.71268576626     
 total        electrons   56.9276861744572     
 translations:           0           1           0
 124 F= -.36305233E+04 E0= -.36305233E+04  d E =-.123569E-02  mag=    57.0000
 curvature:  -1.73 expect dE=-0.785E-02 dE for cont linesearch -0.274E-07
 trial: gam= 0.87812 g(F)=  0.455E-02 g(S)=  0.000E+00 ort = 0.251E-04 (trialstep = 0.368E+00)
 search vector abs. value=  0.351E-01
 bond charge predicted
       N       E                     dE             d eps       ncg     rms          rms(c)
DAV:   1    -0.359288423755E+04    0.69706E-03   -0.28525E-01  5376   0.617E-01    0.226E-01
DAV:   2    -0.359288561489E+04   -0.13773E-02   -0.13608E-02  6016   0.864E-02    0.113E-01
DAV:   3    -0.359288564682E+04   -0.31927E-04   -0.42196E-04  5632   0.174E-02    0.624E-02
DAV:   4    -0.359288562855E+04    0.18273E-04   -0.51389E-05  6656   0.720E-03    0.369E-02
DAV:   5    -0.359288562573E+04    0.28157E-05   -0.22509E-05  5888   0.560E-03    0.103E-02
DAV:   6    -0.359288562628E+04   -0.54734E-06   -0.45933E-06  5888   0.212E-03
 augmentation electrons   1804.88084770887     
 soft         electrons  0.000000000000000E+000
 total        electrons   1804.88084770887     
 augmentation electrons -7.229087016365700E-002
 soft         electrons  0.000000000000000E+000
 total        electrons -7.229087016365700E-002
 augmentation electrons   1954.20847888186     
 soft         electrons  0.000000000000000E+000
 total        electrons   1954.20847888186     
 augmentation electrons   1897.58544693986     
 soft         electrons  0.000000000000000E+000
 total        electrons   1897.58544693986     
 augmentation electrons   56.1685946414943     
 soft         electrons   1748.71220820688     
 total        electrons   1804.88080284838     
 augmentation electrons   35.5871225659816     
 soft         electrons   1748.71220820688     
 total        electrons   56.9276881238768     
 translations:           0           1           0
 125 F= -.36305242E+04 E0= -.36305242E+04  d E =-.912278E-03  mag=    57.0000
 trial-energy change:   -0.000912  1 .order   -0.001100   -0.001683   -0.000517
 step:   0.5317(harm=  0.5317)  dis= 0.00215  next Energy= -3630.524504 (dE=-0.122E-02)
 bond charge predicted
       N       E                     dE             d eps       ncg     rms          rms(c)
DAV:   1    -0.359288528362E+04    0.34211E-03   -0.56363E-02  5376   0.274E-01    0.101E-01
DAV:   2    -0.359288555605E+04   -0.27243E-03   -0.26930E-03  6016   0.385E-02    0.504E-02
DAV:   3    -0.359288556208E+04   -0.60260E-05   -0.83564E-05  5760   0.782E-03    0.278E-02
DAV:   4    -0.359288555840E+04    0.36795E-05   -0.10696E-05  6528   0.332E-03    0.163E-02
DAV:   5    -0.359288555803E+04    0.36893E-06   -0.46626E-06  5760   0.253E-03
 augmentation electrons   1804.88093505959     
 soft         electrons  0.000000000000000E+000
 total        electrons   1804.88093505959     
 augmentation electrons -7.224402213746475E-002
 soft         electrons  0.000000000000000E+000
 total        electrons -7.224402213746475E-002
 augmentation electrons   1954.03548099198     
 soft         electrons  0.000000000000000E+000
 total        electrons   1954.03548099198     
 augmentation electrons   1897.41244904998     
 soft         electrons  0.000000000000000E+000
 total        electrons   1897.41244904998     
 augmentation electrons   56.1689135472415     
 soft         electrons   1748.71197642656     
 total        electrons   1804.88088997380     
 augmentation electrons   35.5871453793410     
 soft         electrons   1748.71197642656     
 total        electrons   56.9277349492513     
 translations:           0           1           0
 126 F= -.36305242E+04 E0= -.36305242E+04  d E =-.936421E-03  mag=    57.0000
 curvature:  -2.04 expect dE=-0.909E-02 dE for cont linesearch -0.848E-07
 trial: gam= 0.82827 g(F)=  0.445E-02 g(S)=  0.000E+00 ort =-0.382E-04 (trialstep = 0.401E+00)
 search vector abs. value=  0.285E-01
 bond charge predicted
       N       E                     dE             d eps       ncg     rms          rms(c)
DAV:   1    -0.359288505988E+04    0.49851E-03   -0.27904E-01  5376   0.624E-01    0.224E-01
DAV:   2    -0.359288641306E+04   -0.13532E-02   -0.13485E-02  6016   0.887E-02    0.112E-01
DAV:   3    -0.359288644152E+04   -0.28460E-04   -0.42085E-04  5760   0.179E-02    0.620E-02
DAV:   4    -0.359288642103E+04    0.20488E-04   -0.52204E-05  6400   0.741E-03    0.361E-02
DAV:   5    -0.359288641780E+04    0.32273E-05   -0.23392E-05  5888   0.570E-03    0.100E-02
DAV:   6    -0.359288641829E+04   -0.49216E-06   -0.44770E-06  6144   0.214E-03
 augmentation electrons   1804.87977107103     
 soft         electrons  0.000000000000000E+000
 total        electrons   1804.87977107103     
 augmentation electrons -7.233394825026188E-002
 soft         electrons  0.000000000000000E+000
 total        electrons -7.233394825026188E-002
 augmentation electrons   1953.35528534021     
 soft         electrons  0.000000000000000E+000
 total        electrons   1953.35528534021     
 augmentation electrons   1896.73225339821     
 soft         electrons  0.000000000000000E+000
 total        electrons   1896.73225339821     
 augmentation electrons   56.1681698455292     
 soft         electrons   1748.71155572060     
 total        electrons   1804.87972556613     
 augmentation electrons   35.5869436484577     
 soft         electrons   1748.71155572060     
 total        electrons   56.9276449374224     
 translations:           0           1           0
 127 F= -.36305253E+04 E0= -.36305253E+04  d E =-.107694E-02  mag=    57.0000
 trial-energy change:   -0.001077  1 .order   -0.001024   -0.001770   -0.000278
 step:   0.4610(harm=  0.4757)  dis= 0.00163  next Energy= -3630.525323 (dE=-0.110E-02)
 bond charge predicted
       N       E                     dE             d eps       ncg     rms          rms(c)
DAV:   1    -0.359288638862E+04    0.29182E-04   -0.63274E-03  5888   0.936E-02    0.340E-02
DAV:   2    -0.359288641945E+04   -0.30835E-04   -0.30938E-04  6016   0.136E-02    0.171E-02
DAV:   3    -0.359288641995E+04   -0.50048E-06   -0.97203E-06  5760   0.280E-03
 augmentation electrons   1804.87962691076     
 soft         electrons  0.000000000000000E+000
 total        electrons   1804.87962691076     
 augmentation electrons -7.232054392118391E-002
 soft         electrons  0.000000000000000E+000
 total        electrons -7.232054392118391E-002
 augmentation electrons   1953.20939738441     
 soft         electrons  0.000000000000000E+000
 total        electrons   1953.20939738441     
 augmentation electrons   1896.58636544241     
 soft         electrons  0.000000000000000E+000
 total        electrons   1896.58636544241     
 augmentation electrons   56.1681079132190     
 soft         electrons   1748.71147342654     
 total        electrons   1804.87958133975     
 augmentation electrons   35.5869342634614     
 soft         electrons   1748.71147342654     
 total        electrons   56.9276583270807     
 translations:           0           1           0
 128 F= -.36305253E+04 E0= -.36305253E+04  d E =-.110021E-02  mag=    57.0000
 curvature:  -1.48 expect dE=-0.494E-02 dE for cont linesearch -0.137E-05
 trial: gam= 0.71335 g(F)=  0.335E-02 g(S)=  0.000E+00 ort = 0.163E-03 (trialstep = 0.413E+00)
 search vector abs. value=  0.181E-01
 bond charge predicted
       N       E                     dE             d eps       ncg     rms          rms(c)
DAV:   1    -0.359288661346E+04   -0.19400E-03   -0.18446E-01  5376   0.507E-01    0.173E-01
DAV:   2    -0.359288744075E+04   -0.82730E-03   -0.83292E-03  6144   0.723E-02    0.884E-02
DAV:   3    -0.359288745645E+04   -0.15699E-04   -0.26179E-04  5888   0.146E-02    0.499E-02
DAV:   4    -0.359288744442E+04    0.12027E-04   -0.33270E-05  6272   0.605E-03    0.288E-02
DAV:   5    -0.359288744261E+04    0.18107E-05   -0.13056E-05  5888   0.438E-03    0.790E-03
DAV:   6    -0.359288744282E+04   -0.20963E-06   -0.25984E-06  6016   0.168E-03
 augmentation electrons   1804.87768524414     
 soft         electrons  0.000000000000000E+000
 total        electrons   1804.87768524414     
 augmentation electrons -7.223769364541924E-002
 soft         electrons  0.000000000000000E+000
 total        electrons -7.223769364541924E-002
 augmentation electrons   1952.74872273264     
 soft         electrons  0.000000000000000E+000
 total        electrons   1952.74872273264     
 augmentation electrons   1896.12569079064     
 soft         electrons  0.000000000000000E+000
 total        electrons   1896.12569079064     
 augmentation electrons   56.1661752163297     
 soft         electrons   1748.71146410528     
 total        electrons   1804.87763932161     
 augmentation electrons   35.5868958263363     
 soft         electrons   1748.71146410528     
 total        electrons   56.9277410900894     
 translations:           0           1           0
 129 F= -.36305264E+04 E0= -.36305264E+04  d E =-.109470E-02  mag=    57.0000
 trial-energy change:   -0.001095  1 .order   -0.000915   -0.001430   -0.000399
 step:   0.4846(harm=  0.5727)  dis= 0.00140  next Energy= -3630.526456 (dE=-0.113E-02)
 bond charge predicted
       N       E                     dE             d eps       ncg     rms          rms(c)
DAV:   1    -0.359288749155E+04   -0.48934E-04   -0.56338E-03  5888   0.881E-02    0.308E-02
DAV:   2    -0.359288751651E+04   -0.24964E-04   -0.25697E-04  6144   0.128E-02    0.157E-02
DAV:   3    -0.359288751676E+04   -0.24313E-06   -0.80540E-06  5888   0.264E-03
 augmentation electrons   1804.87734907216     
 soft         electrons  0.000000000000000E+000
 total        electrons   1804.87734907216     
 augmentation electrons -7.223197765728284E-002
 soft         electrons  0.000000000000000E+000
 total        electrons -7.223197765728284E-002
 augmentation electrons   1952.64648865555     
 soft         electrons  0.000000000000000E+000
 total        electrons   1952.64648865555     
 augmentation electrons   1896.02345671355     
 soft         electrons  0.000000000000000E+000
 total        electrons   1896.02345671355     
 augmentation electrons   56.1658123089343     
 soft         electrons   1748.71149077861     
 total        electrons   1804.87730308754     
 augmentation electrons   35.5868722144623     
 soft         electrons   1748.71149077861     
 total        electrons   56.9277467902629     
 translations:           0           1           0
 130 F= -.36305265E+04 E0= -.36305265E+04  d E =-.118059E-02  mag=    57.0000
 curvature:  -1.04 expect dE=-0.287E-02 dE for cont linesearch -0.132E-04
 trial: gam= 0.70829 g(F)=  0.276E-02 g(S)=  0.000E+00 ort = 0.479E-03 (trialstep = 0.427E+00)
 search vector abs. value=  0.125E-01
 bond charge predicted
       N       E                     dE             d eps       ncg     rms          rms(c)
DAV:   1    -0.359288797710E+04   -0.46059E-03   -0.13719E-01  5376   0.423E-01    0.139E-01
DAV:   2    -0.359288848237E+04   -0.50527E-03   -0.53493E-03  6144   0.597E-02    0.731E-02
DAV:   3    -0.359288848473E+04   -0.23598E-05   -0.16777E-04  5760   0.120E-02    0.428E-02
DAV:   4    -0.359288847412E+04    0.10607E-04   -0.24675E-05  6400   0.533E-03    0.237E-02
DAV:   5    -0.359288847315E+04    0.97686E-06   -0.11330E-05  5632   0.378E-03    0.637E-03
DAV:   6    -0.359288847325E+04   -0.10141E-06   -0.18178E-06  5760   0.144E-03
 augmentation electrons   1804.87591950563     
 soft         electrons  0.000000000000000E+000
 total        electrons   1804.87591950563     
 augmentation electrons -7.224892050394884E-002
 soft         electrons  0.000000000000000E+000
 total        electrons -7.224892050394884E-002
 augmentation electrons   1952.75378814851     
 soft         electrons  0.000000000000000E+000
 total        electrons   1952.75378814851     
 augmentation electrons   1896.13075620651     
 soft         electrons  0.000000000000000E+000
 total        electrons   1896.13075620651     
 augmentation electrons   56.1643918779777     
 soft         electrons   1748.71148126594     
 total        electrons   1804.87587314391     
 augmentation electrons   35.5867822993561     
 soft         electrons   1748.71148126594     
 total        electrons   56.9277297756903     
 translations:           0           1           0
 131 F= -.36305275E+04 E0= -.36305275E+04  d E =-.984899E-03  mag=    57.0000
 trial-energy change:   -0.000985  1 .order   -0.000802   -0.001325   -0.000280
 step:   0.4798(harm=  0.5417)  dis= 0.00115  next Energy= -3630.527509 (dE=-0.100E-02)
 bond charge predicted
       N       E                     dE             d eps       ncg     rms          rms(c)
DAV:   1    -0.359288851246E+04   -0.39311E-04   -0.21222E-03  5888   0.522E-02    0.177E-02
DAV:   2    -0.359288852021E+04   -0.77521E-05   -0.85274E-05  6144   0.766E-03    0.936E-03
DAV:   3    -0.359288852009E+04    0.11550E-06   -0.26042E-06  5120   0.160E-03
 augmentation electrons   1804.87573264673     
 soft         electrons  0.000000000000000E+000
 total        electrons   1804.87573264673     
 augmentation electrons -7.227522262679939E-002
 soft         electrons  0.000000000000000E+000
 total        electrons -7.227522262679939E-002
 augmentation electrons   1952.76001732456     
 soft         electrons  0.000000000000000E+000
 total        electrons   1952.76001732456     
 augmentation electrons   1896.13698538256     
 soft         electrons  0.000000000000000E+000
 total        electrons   1896.13698538256     
 augmentation electrons   56.1641893811222     
 soft         electrons   1748.71149685746     
 total        electrons   1804.87568623858     
 augmentation electrons   35.5867417606511     
 soft         electrons   1748.71149685746     
 total        electrons   56.9277034646576     
 translations:           0           1           0
 132 F= -.36305275E+04 E0= -.36305275E+04  d E =-.103546E-02  mag=    57.0000
 curvature:  -0.77 expect dE=-0.163E-02 dE for cont linesearch -0.934E-05
 trial: gam= 0.77078 g(F)=  0.210E-02 g(S)=  0.000E+00 ort = 0.389E-03 (trialstep = 0.438E+00)
 search vector abs. value=  0.101E-01
 bond charge predicted
       N       E                     dE             d eps       ncg     rms          rms(c)
DAV:   1    -0.359288885163E+04   -0.33142E-03   -0.11160E-01  5248   0.381E-01    0.124E-01
DAV:   2    -0.359288926590E+04   -0.41427E-03   -0.43486E-03  6144   0.543E-02    0.647E-02
DAV:   3    -0.359288926867E+04   -0.27704E-05   -0.13080E-04  5888   0.109E-02    0.387E-02
DAV:   4    -0.359288926126E+04    0.74052E-05   -0.18451E-05  6400   0.462E-03    0.223E-02
DAV:   5    -0.359288926053E+04    0.73553E-06   -0.85387E-06  6016   0.339E-03
 augmentation electrons   1804.87498983949     
 soft         electrons  0.000000000000000E+000
 total        electrons   1804.87498983949     
 augmentation electrons -7.228066505239464E-002
 soft         electrons  0.000000000000000E+000
 total        electrons -7.228066505239464E-002
 augmentation electrons   1953.29517129321     
 soft         electrons  0.000000000000000E+000
 total        electrons   1953.29517129321     
 augmentation electrons   1896.67213935121     
 soft         electrons  0.000000000000000E+000
 total        electrons   1896.67213935121     
 augmentation electrons   56.1634390944745     
 soft         electrons   1748.71150402595     
 total        electrons   1804.87494312042     
 augmentation electrons   35.5866972373089     
 soft         electrons   1748.71150402595     
 total        electrons   56.9276979617636     
 translations:           0           1           0
 133 F= -.36305283E+04 E0= -.36305283E+04  d E =-.729200E-03  mag=    57.0000
 trial-energy change:   -0.000729  1 .order   -0.000671   -0.001052   -0.000290
 step:   0.5442(harm=  0.6047)  dis= 0.00132  next Energy= -3630.528307 (dE=-0.765E-03)
 bond charge predicted
       N       E                     dE             d eps       ncg     rms          rms(c)
DAV:   1    -0.359288930333E+04   -0.42062E-04   -0.67440E-03  5504   0.930E-02    0.309E-02
DAV:   2    -0.359288932821E+04   -0.24881E-04   -0.26654E-04  6144   0.136E-02    0.160E-02
DAV:   3    -0.359288932808E+04    0.12740E-06   -0.80926E-06  6016   0.281E-03
 augmentation electrons   1804.87479934162     
 soft         electrons  0.000000000000000E+000
 total        electrons   1804.87479934162     
 augmentation electrons -7.228773249821656E-002
 soft         electrons  0.000000000000000E+000
 total        electrons -7.228773249821656E-002
 augmentation electrons   1953.40993166065     
 soft         electrons  0.000000000000000E+000
 total        electrons   1953.40993166065     
 augmentation electrons   1896.78689971865     
 soft         electrons  0.000000000000000E+000
 total        electrons   1896.78689971865     
 augmentation electrons   56.1632430302482     
 soft         electrons   1748.71150951707     
 total        electrons   1804.87475254732     
 augmentation electrons   35.5866768146452     
 soft         electrons   1748.71150951707     
 total        electrons   56.9276908798822     
 translations:           0           1           0
 134 F= -.36305283E+04 E0= -.36305283E+04  d E =-.788175E-03  mag=    57.0000
 curvature:  -1.11 expect dE=-0.244E-02 dE for cont linesearch -0.103E-04
 trial: gam= 0.98408 g(F)=  0.220E-02 g(S)=  0.000E+00 ort = 0.307E-03 (trialstep = 0.369E+00)
 search vector abs. value=  0.126E-01
 bond charge predicted
       N       E                     dE             d eps       ncg     rms          rms(c)
DAV:   1    -0.359288954449E+04   -0.21629E-03   -0.98441E-02  5248   0.358E-01    0.115E-01
DAV:   2    -0.359288990593E+04   -0.36143E-03   -0.37985E-03  6144   0.509E-02    0.608E-02
DAV:   3    -0.359288990866E+04   -0.27301E-05   -0.11104E-04  5888   0.102E-02    0.365E-02
DAV:   4    -0.359288990200E+04    0.66564E-05   -0.15847E-05  6656   0.430E-03    0.210E-02
DAV:   5    -0.359288990127E+04    0.72608E-06   -0.77702E-06  5888   0.321E-03
 augmentation electrons   1804.87371511481     
 soft         electrons  0.000000000000000E+000
 total        electrons   1804.87371511481     
 augmentation electrons -7.236335089325527E-002
 soft         electrons  0.000000000000000E+000
 total        electrons -7.236335089325527E-002
 augmentation electrons   1954.08052709175     
 soft         electrons  0.000000000000000E+000
 total        electrons   1954.08052709175     
 augmentation electrons   1897.45749514975     
 soft         electrons  0.000000000000000E+000
 total        electrons   1897.45749514975     
 augmentation electrons   56.1620327864104     
 soft         electrons   1748.71163524062     
 total        electrons   1804.87366802703     
 augmentation electrons   35.5866948914961     
 soft         electrons   1748.71163524062     
 total        electrons   56.9276152082793     
 translations:           0           1           0
 135 F= -.36305289E+04 E0= -.36305289E+04  d E =-.600069E-03  mag=    57.0000
 trial-energy change:   -0.000600  1 .order   -0.000599   -0.000922   -0.000275
 step:   0.5253(harm=  0.5253)  dis= 0.00144  next Energy= -3630.528987 (dE=-0.657E-03)
 reached required accuracy - stopping structural energy minimisation
 writing wavefunctions
