 ----------------------------------------------------
    OOO  PPPP  EEEEE N   N M   M PPPP
   O   O P   P E     NN  N MM MM P   P
   O   O PPPP  EEEEE N N N M M M PPPP   -- VERSION
   O   O P     E     N  NN M   M P
    OOO  P     EEEEE N   N M   M P
 ----------------------------------------------------
 running  512 mpi-ranks, with    1 threads/rank
 distrk:  each k-point on  512 cores,    1 groups
 distr:  one band on    4 cores,  128 groups
 vasp.6.3.2 27Jun22 (build Nov 12 2024 19:13:04) complex                        
  
 POSCAR found type information on POSCAR MnBrN C H 
 POSCAR found :  5 types and     636 ions
 scaLAPACK will be used
 LDA part: xc-table for Pade appr. of Perdew
 POSCAR, INCAR and KPOINTS ok, starting setup
 FFT: planning ... GRIDC
 FFT: planning ... GRID_SOFT
 FFT: planning ... GRID
 WAVECAR not read
 entering main loop
       N       E                     dE             d eps       ncg     rms          rms(c)
DAV:   1     0.989996556212E+04    0.99000E+04   -0.80697E+05  5376   0.120E+03
DAV:   2    -0.259180961915E+04   -0.12492E+05   -0.12055E+05  6272   0.260E+02
DAV:   3    -0.383014475796E+04   -0.12383E+04   -0.12290E+04  6400   0.875E+01
DAV:   4    -0.386235605521E+04   -0.32211E+02   -0.32010E+02  6528   0.161E+01
DAV:   5    -0.386337066425E+04   -0.10146E+01   -0.10134E+01  6656   0.270E+00    0.110E+02
DAV:   6    -0.365161076902E+04    0.21176E+03   -0.11235E+03  6400   0.289E+01    0.107E+02
DAV:   7    -0.361242818074E+04    0.39183E+02   -0.25092E+02  6528   0.206E+01    0.571E+01
DAV:   8    -0.360624712647E+04    0.61811E+01   -0.38347E+01  6656   0.561E+00    0.321E+01
DAV:   9    -0.359785387975E+04    0.83932E+01   -0.22750E+01  6272   0.404E+00    0.129E+01
DAV:  10    -0.359922762634E+04   -0.13737E+01   -0.29471E+00  5760   0.221E+00    0.486E+00
DAV:  11    -0.359927860458E+04   -0.50978E-01   -0.73122E-01  6528   0.916E-01    0.242E+00
DAV:  12    -0.359933504776E+04   -0.56443E-01   -0.11868E-01  5888   0.544E-01    0.114E+00
DAV:  13    -0.359937212910E+04   -0.37081E-01   -0.72353E-02  6144   0.336E-01    0.887E-01
DAV:  14    -0.359938141707E+04   -0.92880E-02   -0.19543E-02  6400   0.164E-01    0.385E-01
DAV:  15    -0.359938433671E+04   -0.29196E-02   -0.59924E-03  5760   0.125E-01    0.155E-01
DAV:  16    -0.359938503552E+04   -0.69881E-03   -0.21872E-03  6656   0.551E-02    0.108E-01
DAV:  17    -0.359938515348E+04   -0.11796E-03   -0.79092E-04  5888   0.441E-02    0.626E-02
DAV:  18    -0.359938512619E+04    0.27291E-04   -0.50453E-04  6528   0.250E-02    0.440E-02
DAV:  19    -0.359938510054E+04    0.25646E-04   -0.10232E-04  6912   0.128E-02    0.370E-02
DAV:  20    -0.359938509224E+04    0.83007E-05   -0.19315E-05  6912   0.910E-03    0.317E-02
DAV:  21    -0.359938508439E+04    0.78530E-05   -0.16981E-05  7680   0.686E-03    0.292E-02
DAV:  22    -0.359938507859E+04    0.57997E-05   -0.94071E-06  7936   0.719E-03    0.265E-02
DAV:  23    -0.359938508183E+04   -0.32424E-05   -0.15059E-05  6528   0.809E-03    0.224E-02
DAV:  24    -0.359938508882E+04   -0.69891E-05   -0.28925E-05  6016   0.618E-03    0.148E-02
DAV:  25    -0.359938508968E+04   -0.86607E-06   -0.14356E-05  6016   0.339E-03    0.111E-02
DAV:  26    -0.359938508116E+04    0.85215E-05   -0.47318E-06  5888   0.529E-03    0.626E-03
DAV:  27    -0.359938507711E+04    0.40556E-05   -0.69481E-06  6400   0.480E-03    0.326E-03
DAV:  28    -0.359938507664E+04    0.46278E-06   -0.54296E-06  6400   0.242E-03
 augmentation electrons   1811.87889482159     
 soft         electrons  0.000000000000000E+000
 total        electrons   1811.87889482159     
 augmentation electrons -8.266825044100699E-002
 soft         electrons  0.000000000000000E+000
 total        electrons -8.266825044100699E-002
 augmentation electrons   1923.93918884376     
 soft         electrons  0.000000000000000E+000
 total        electrons   1923.93918884376     
 augmentation electrons   1866.42202897176     
 soft         electrons  0.000000000000000E+000
 total        electrons   1866.42202897176     
 augmentation electrons   54.7995925376874     
 soft         electrons   1757.07921602835     
 total        electrons   1811.87880856604     
 augmentation electrons   37.9863188168696     
 soft         electrons   1757.07921602835     
 total        electrons   59.9172934605255     
 translations:           0           1           0
   1 F= -.36372741E+04 E0= -.36372741E+04  d E =-.363727E+04  mag=    60.0000
 curvature:   0.00 expect dE= 0.000E+00 dE for cont linesearch  0.000E+00
 trial: gam= 0.00000 g(F)=  0.512E+00 g(S)=  0.000E+00 ort = 0.000E+00 (trialstep = 0.100E+01)
 search vector abs. value=  0.512E+00
 bond charge predicted
       N       E                     dE             d eps       ncg     rms          rms(c)
DAV:   1    -0.359962574098E+04   -0.24066E+00   -0.34789E+01  5120   0.317E+00    0.306E+00
DAV:   2    -0.359975980416E+04   -0.13406E+00   -0.15728E+00  6144   0.775E-01    0.181E+00
DAV:   3    -0.359975494439E+04    0.48598E-02   -0.31518E-02  6400   0.138E-01    0.994E-01
DAV:   4    -0.359975254702E+04    0.23974E-02   -0.36905E-03  6528   0.403E-02    0.662E-01
DAV:   5    -0.359975058231E+04    0.19647E-02   -0.11094E-02  6656   0.756E-02    0.209E-01
DAV:   6    -0.359975062654E+04   -0.44229E-04   -0.20795E-03  6016   0.353E-02    0.622E-02
DAV:   7    -0.359975062091E+04    0.56291E-05   -0.96846E-05  6272   0.771E-03    0.350E-02
DAV:   8    -0.359975061653E+04    0.43739E-05   -0.92730E-06  6528   0.342E-03    0.203E-02
DAV:   9    -0.359975061572E+04    0.81328E-06   -0.76329E-06  5888   0.268E-03
 augmentation electrons   1811.91100222226     
 soft         electrons  0.000000000000000E+000
 total        electrons   1811.91100222226     
 augmentation electrons -8.229093402586676E-002
 soft         electrons  0.000000000000000E+000
 total        electrons -8.229093402586676E-002
 augmentation electrons   1992.82331075491     
 soft         electrons  0.000000000000000E+000
 total        electrons   1992.82331075491     
 augmentation electrons   1935.30615088291     
 soft         electrons  0.000000000000000E+000
 total        electrons   1935.30615088291     
 augmentation electrons   54.8562939226803     
 soft         electrons   1757.05463599775     
 total        electrons   1811.91092992043     
 augmentation electrons   38.0723504115906     
 soft         electrons   1757.05463599775     
 total        electrons   59.9176722802528     
 translations:           0           1           0
   2 F= -.36376631E+04 E0= -.36376631E+04  d E =-.389027E+00  mag=    60.0000
 trial-energy change:   -0.389027  1 .order   -0.384080   -0.511808   -0.256352
 step:   1.8277(harm=  2.0035)  dis= 0.05465  next Energy= -3637.771993 (dE=-0.498E+00)
 bond charge predicted
       N       E                     dE             d eps       ncg     rms          rms(c)
DAV:   1    -0.359979794881E+04   -0.47332E-01   -0.23762E+01  5120   0.263E+00    0.248E+00
DAV:   2    -0.359988826548E+04   -0.90317E-01   -0.10576E+00  6144   0.629E-01    0.140E+00
DAV:   3    -0.359988489587E+04    0.33696E-02   -0.20682E-02  6400   0.112E-01    0.782E-01
DAV:   4    -0.359988336861E+04    0.15273E-02   -0.23336E-03  6528   0.322E-02    0.519E-01
DAV:   5    -0.359988197485E+04    0.13938E-02   -0.73101E-03  6400   0.619E-02    0.172E-01
DAV:   6    -0.359988201463E+04   -0.39778E-04   -0.13592E-03  6272   0.284E-02    0.484E-02
DAV:   7    -0.359988201222E+04    0.24045E-05   -0.61870E-05  6272   0.628E-03    0.255E-02
DAV:   8    -0.359988200978E+04    0.24382E-05   -0.61457E-06  6016   0.277E-03    0.150E-02
DAV:   9    -0.359988200989E+04   -0.10247E-06   -0.42803E-06  5888   0.206E-03
 augmentation electrons   1812.05394555736     
 soft         electrons  0.000000000000000E+000
 total        electrons   1812.05394555736     
 augmentation electrons -8.177510582142453E-002
 soft         electrons  0.000000000000000E+000
 total        electrons -8.177510582142453E-002
 augmentation electrons   2116.92390071595     
 soft         electrons  0.000000000000000E+000
 total        electrons   2116.92390071595     
 augmentation electrons   2059.40674084395     
 soft         electrons  0.000000000000000E+000
 total        electrons   2059.40674084395     
 augmentation electrons   55.0184728711726     
 soft         electrons   1757.03539823227     
 total        electrons   1812.05387110344     
 augmentation electrons   38.1388551608152     
 soft         electrons   1757.03539823227     
 total        electrons   59.9181895220176     
 translations:           0           1           0
   3 F= -.36378098E+04 E0= -.36378098E+04  d E =-.535730E+00  mag=    60.0000
 curvature:  -0.97 expect dE=-0.400E+00 dE for cont linesearch -0.126E-01
 trial: gam= 0.64581 g(F)=  0.412E+00 g(S)=  0.000E+00 ort = 0.815E-01 (trialstep = 0.816E+00)
 search vector abs. value=  0.731E+00
 bond charge predicted
       N       E                     dE             d eps       ncg     rms          rms(c)
DAV:   1    -0.359969737130E+04    0.18464E+00   -0.42282E+01  5248   0.539E+00    0.264E+00
DAV:   2    -0.359981581399E+04   -0.11844E+00   -0.16037E+00  6144   0.991E-01    0.157E+00
DAV:   3    -0.359980456614E+04    0.11248E-01   -0.43600E-02  6656   0.198E-01    0.953E-01
DAV:   4    -0.359980015455E+04    0.44116E-02   -0.68913E-03  6528   0.719E-02    0.629E-01
DAV:   5    -0.359979682564E+04    0.33289E-02   -0.81809E-03  6144   0.888E-02    0.190E-01
DAV:   6    -0.359979700413E+04   -0.17848E-03   -0.24529E-03  6144   0.395E-02    0.505E-02
DAV:   7    -0.359979698888E+04    0.15247E-04   -0.11675E-04  6272   0.978E-03    0.296E-02
DAV:   8    -0.359979697818E+04    0.10696E-04   -0.21531E-05  6272   0.494E-03    0.136E-02
DAV:   9    -0.359979697559E+04    0.25886E-05   -0.93352E-06  6400   0.329E-03    0.655E-03
DAV:  10    -0.359979697502E+04    0.57153E-06   -0.33167E-06  6528   0.187E-03
 augmentation electrons   1812.48740801211     
 soft         electrons  0.000000000000000E+000
 total        electrons   1812.48740801211     
 augmentation electrons -8.136754179753181E-002
 soft         electrons  0.000000000000000E+000
 total        electrons -8.136754179753181E-002
 augmentation electrons   2445.86457493587     
 soft         electrons  0.000000000000000E+000
 total        electrons   2445.86457493587     
 augmentation electrons   2388.34741506387     
 soft         electrons  0.000000000000000E+000
 total        electrons   2388.34741506387     
 augmentation electrons   55.4537695876092     
 soft         electrons   1757.03355739458     
 total        electrons   1812.48732698219     
 augmentation electrons   38.1957545732892     
 soft         electrons   1757.03355739458     
 total        electrons   59.9185984880120     
 translations:           0           1           0
   4 F= -.36377421E+04 E0= -.36377421E+04  d E =0.676867E-01  mag=    60.0000
 trial-energy change:    0.067687  1 .order    0.083530   -0.379321    0.546381
 step:   0.3551(harm=  0.3345)  dis= 0.01116  next Energy= -3637.893605 (dE=-0.838E-01)
 bond charge predicted
       N       E                     dE             d eps       ncg     rms          rms(c)
DAV:   1    -0.359992745254E+04   -0.13048E+00   -0.13509E+01  5248   0.305E+00    0.157E+00
DAV:   2    -0.359996485841E+04   -0.37406E-01   -0.50772E-01  6144   0.562E-01    0.919E-01
DAV:   3    -0.359996132770E+04    0.35307E-02   -0.14021E-02  6784   0.113E-01    0.551E-01
DAV:   4    -0.359995996039E+04    0.13673E-02   -0.21461E-03  6656   0.400E-02    0.367E-01
DAV:   5    -0.359995888242E+04    0.10780E-02   -0.26921E-03  6272   0.512E-02    0.117E-01
DAV:   6    -0.359995895258E+04   -0.70159E-04   -0.84061E-04  6272   0.230E-02    0.285E-02
DAV:   7    -0.359995894667E+04    0.59161E-05   -0.43020E-05  6400   0.589E-03    0.162E-02
DAV:   8    -0.359995894278E+04    0.38882E-05   -0.83672E-06  6272   0.308E-03    0.659E-03
DAV:   9    -0.359995894168E+04    0.11003E-05   -0.27652E-06  6272   0.187E-03    0.370E-03
DAV:  10    -0.359995894126E+04    0.42416E-06   -0.93805E-07  4992   0.117E-03
 augmentation electrons   1812.20497970249     
 soft         electrons  0.000000000000000E+000
 total        electrons   1812.20497970249     
 augmentation electrons -8.144967648515558E-002
 soft         electrons  0.000000000000000E+000
 total        electrons -8.144967648515558E-002
 augmentation electrons   2226.88276573532     
 soft         electrons  0.000000000000000E+000
 total        electrons   2226.88276573532     
 augmentation electrons   2169.36560586332     
 soft         electrons  0.000000000000000E+000
 total        electrons   2169.36560586332     
 augmentation electrons   55.1698643881825     
 soft         electrons   1757.03503749540     
 total        electrons   1812.20490188358     
 augmentation electrons   38.1640498470721     
 soft         electrons   1757.03503749540     
 total        electrons   59.9185155341837     
 translations:           0           1           0
   5 F= -.36378946E+04 E0= -.36378946E+04  d E =-.847751E-01  mag=    60.0000
 curvature:  -0.26 expect dE=-0.340E-01 dE for cont linesearch -0.389E-03
 ZBRENT: interpolating
 opt :   0.3316  next Energy= -3637.894959 (dE=-0.852E-01)
 bond charge predicted
       N       E                     dE             d eps       ncg     rms          rms(c)
DAV:   1    -0.359995924715E+04   -0.30547E-03   -0.34862E-02  5760   0.155E-01    0.762E-02
DAV:   2    -0.359995934847E+04   -0.10132E-03   -0.13219E-03  6144   0.283E-02    0.441E-02
DAV:   3    -0.359995934073E+04    0.77369E-05   -0.35590E-05  6656   0.572E-03    0.278E-02
DAV:   4    -0.359995933809E+04    0.26415E-05   -0.53697E-06  6528   0.201E-03    0.186E-02
DAV:   5    -0.359995933720E+04    0.89199E-06   -0.67510E-06  6016   0.256E-03
 augmentation electrons   1812.19325359117     
 soft         electrons  0.000000000000000E+000
 total        electrons   1812.19325359117     
 augmentation electrons -8.146415193299300E-002
 soft         electrons  0.000000000000000E+000
 total        electrons -8.146415193299300E-002
 augmentation electrons   2218.26377173802     
 soft         electrons  0.000000000000000E+000
 total        electrons   2218.26377173802     
 augmentation electrons   2160.74661186602     
 soft         electrons  0.000000000000000E+000
 total        electrons   2160.74661186602     
 augmentation electrons   55.1580025990589     
 soft         electrons   1757.03517337064     
 total        electrons   1812.19317596970     
 augmentation electrons   38.1623875348118     
 soft         electrons   1757.03517337064     
 total        electrons   59.9185010188638     
 translations:           0           1           0
   6 F= -.36378945E+04 E0= -.36378945E+04  d E =-.846810E-01  mag=    60.0000
 curvature:  -0.26 expect dE=-0.271E-01 dE for cont linesearch -0.106E-09
 trial: gam= 0.40248 g(F)=  0.104E+00 g(S)=  0.000E+00 ort =-0.172E-04 (trialstep = 0.719E+00)
 search vector abs. value=  0.222E+00
 bond charge predicted
       N       E                     dE             d eps       ncg     rms          rms(c)
DAV:   1    -0.359994817769E+04    0.11160E-01   -0.87257E+00  5248   0.238E+00    0.136E+00
DAV:   2    -0.359998487810E+04   -0.36700E-01   -0.41998E-01  6144   0.465E-01    0.785E-01
DAV:   3    -0.359998366411E+04    0.12140E-02   -0.10007E-02  6400   0.912E-02    0.432E-01
DAV:   4    -0.359998305432E+04    0.60979E-03   -0.11457E-03  6528   0.283E-02    0.294E-01
DAV:   5    -0.359998244688E+04    0.60744E-03   -0.14781E-03  6400   0.351E-02    0.114E-01
DAV:   6    -0.359998247062E+04   -0.23738E-04   -0.46656E-04  6272   0.174E-02    0.230E-02
DAV:   7    -0.359998246665E+04    0.39696E-05   -0.31514E-05  6144   0.496E-03    0.136E-02
DAV:   8    -0.359998246442E+04    0.22247E-05   -0.51862E-06  5888   0.238E-03    0.626E-03
DAV:   9    -0.359998246403E+04    0.39654E-06   -0.17154E-06  5376   0.161E-03
 augmentation electrons   1812.49934463385     
 soft         electrons  0.000000000000000E+000
 total        electrons   1812.49934463385     
 augmentation electrons -8.151831390613669E-002
 soft         electrons  0.000000000000000E+000
 total        electrons -8.151831390613669E-002
 augmentation electrons   2466.08903950118     
 soft         electrons  0.000000000000000E+000
 total        electrons   2466.08903950118     
 augmentation electrons   2408.57187962918     
 soft         electrons  0.000000000000000E+000
 total        electrons   2408.57187962918     
 augmentation electrons   55.4624727702642     
 soft         electrons   1757.03679433592     
 total        electrons   1812.49926710619     
 augmentation electrons   38.1910669969638     
 soft         electrons   1757.03679433592     
 total        electrons   59.9184476913215     
 translations:           0           1           0
   7 F= -.36379252E+04 E0= -.36379252E+04  d E =-.307011E-01  mag=    60.0000
 trial-energy change:   -0.030701  1 .order   -0.020815   -0.074783    0.033153
 step:   0.5650(harm=  0.4984)  dis= 0.01201  next Energy= -3637.928638 (dE=-0.342E-01)
 bond charge predicted
       N       E                     dE             d eps       ncg     rms          rms(c)
DAV:   1    -0.359998515462E+04   -0.26902E-02   -0.40255E-01  5504   0.513E-01    0.301E-01
DAV:   2    -0.359998683897E+04   -0.16844E-02   -0.19206E-02  6144   0.100E-01    0.170E-01
DAV:   3    -0.359998678829E+04    0.50675E-04   -0.46135E-04  6528   0.197E-02    0.933E-02
DAV:   4    -0.359998676269E+04    0.25598E-04   -0.53820E-05  6400   0.615E-03    0.632E-02
DAV:   5    -0.359998674169E+04    0.21009E-04   -0.67787E-05  6400   0.771E-03    0.252E-02
DAV:   6    -0.359998674530E+04   -0.36122E-05   -0.23572E-05  6400   0.395E-03    0.514E-03
DAV:   7    -0.359998674504E+04    0.25277E-06   -0.18896E-06  5376   0.121E-03
 augmentation electrons   1812.42512974236     
 soft         electrons  0.000000000000000E+000
 total        electrons   1812.42512974236     
 augmentation electrons -8.142515170776342E-002
 soft         electrons  0.000000000000000E+000
 total        electrons -8.142515170776342E-002
 augmentation electrons   2404.08886459636     
 soft         electrons  0.000000000000000E+000
 total        electrons   2404.08886459636     
 augmentation electrons   2346.57170472436     
 soft         electrons  0.000000000000000E+000
 total        electrons   2346.57170472436     
 augmentation electrons   55.3886705288112     
 soft         electrons   1757.03638143252     
 total        electrons   1812.42505196134     
 augmentation electrons   38.1850411608143     
 soft         electrons   1757.03638143252     
 total        electrons   59.9185406627807     
 translations:           0           1           0
   8 F= -.36379279E+04 E0= -.36379279E+04  d E =-.333911E-01  mag=    60.0000
 curvature:  -0.48 expect dE=-0.576E-01 dE for cont linesearch -0.520E-03
 trial: gam= 1.14662 g(F)=  0.119E+00 g(S)=  0.000E+00 ort =-0.155E-01 (trialstep = 0.407E+00)
 search vector abs. value=  0.376E+00
 bond charge predicted
       N       E                     dE             d eps       ncg     rms          rms(c)
DAV:   1    -0.359999359135E+04   -0.68460E-02   -0.45451E+00  5376   0.162E+00    0.102E+00
DAV:   2    -0.360001609004E+04   -0.22499E-01   -0.24331E-01  6016   0.318E-01    0.561E-01
DAV:   3    -0.360001576705E+04    0.32299E-03   -0.52829E-03  6272   0.604E-02    0.299E-01
DAV:   4    -0.360001549149E+04    0.27556E-03   -0.46092E-04  6528   0.161E-02    0.205E-01
DAV:   5    -0.360001517005E+04    0.32145E-03   -0.82328E-04  6400   0.263E-02    0.848E-02
DAV:   6    -0.360001518548E+04   -0.15430E-04   -0.24106E-04  6400   0.122E-02    0.164E-02
DAV:   7    -0.360001518370E+04    0.17760E-05   -0.14271E-05  6144   0.325E-03    0.876E-03
DAV:   8    -0.360001518254E+04    0.11583E-05   -0.21403E-06  5504   0.170E-03    0.383E-03
DAV:   9    -0.360001518226E+04    0.28354E-06   -0.82547E-07  5120   0.126E-03
 augmentation electrons   1812.70038013541     
 soft         electrons  0.000000000000000E+000
 total        electrons   1812.70038013541     
 augmentation electrons -8.140829612823387E-002
 soft         electrons  0.000000000000000E+000
 total        electrons -8.140829612823387E-002
 augmentation electrons   2640.26287754704     
 soft         electrons  0.000000000000000E+000
 total        electrons   2640.26287754704     
 augmentation electrons   2582.74571767504     
 soft         electrons  0.000000000000000E+000
 total        electrons   2582.74571767504     
 augmentation electrons   55.6646499891213     
 soft         electrons   1757.03565437448     
 total        electrons   1812.70030436360     
 augmentation electrons   38.2047298482749     
 soft         electrons   1757.03565437448     
 total        electrons   59.9185582806266     
 translations:           0           1           0
   9 F= -.36379589E+04 E0= -.36379589E+04  d E =-.309833E-01  mag=    60.0000
 trial-energy change:   -0.030983  1 .order   -0.027458   -0.041228   -0.013688
 step:   0.5104(harm=  0.6097)  dis= 0.01575  next Energy= -3637.960643 (dE=-0.328E-01)
 bond charge predicted
       N       E                     dE             d eps       ncg     rms          rms(c)
DAV:   1    -0.360001671427E+04   -0.15317E-02   -0.29078E-01  5504   0.410E-01    0.257E-01
DAV:   2    -0.360001815251E+04   -0.14382E-02   -0.15550E-02  6016   0.803E-02    0.140E-01
DAV:   3    -0.360001813084E+04    0.21670E-04   -0.33464E-04  6272   0.152E-02    0.758E-02
DAV:   4    -0.360001811325E+04    0.17585E-04   -0.28385E-05  6528   0.397E-03    0.526E-02
DAV:   5    -0.360001809045E+04    0.22802E-04   -0.52982E-05  6272   0.657E-03    0.215E-02
DAV:   6    -0.360001809074E+04   -0.29092E-06   -0.14546E-05  6272   0.294E-03    0.410E-03
DAV:   7    -0.360001809070E+04    0.42390E-07   -0.70256E-07  4864   0.734E-04
 augmentation electrons   1812.75510164114     
 soft         electrons  0.000000000000000E+000
 total        electrons   1812.75510164114     
 augmentation electrons -8.166575887550614E-002
 soft         electrons  0.000000000000000E+000
 total        electrons -8.166575887550614E-002
 augmentation electrons   2693.33754665348     
 soft         electrons  0.000000000000000E+000
 total        electrons   2693.33754665348     
 augmentation electrons   2635.82038678148     
 soft         electrons  0.000000000000000E+000
 total        electrons   2635.82038678148     
 augmentation electrons   55.7194746246858     
 soft         electrons   1757.03555203677     
 total        electrons   1812.75502666146     
 augmentation electrons   38.2093587190063     
 soft         electrons   1757.03555203677     
 total        electrons   59.9183010208667     
 translations:           0           1           0
  10 F= -.36379623E+04 E0= -.36379623E+04  d E =-.344631E-01  mag=    60.0000
 curvature:  -0.86 expect dE=-0.786E-01 dE for cont linesearch -0.568E-03
 trial: gam= 0.38180 g(F)=  0.914E-01 g(S)=  0.000E+00 ort = 0.158E-01 (trialstep = 0.428E+00)
 search vector abs. value=  0.158E+00
 bond charge predicted
       N       E                     dE             d eps       ncg     rms          rms(c)
DAV:   1    -0.360002698124E+04   -0.88905E-02   -0.24335E+00  5504   0.143E+00    0.556E-01
DAV:   2    -0.360003625960E+04   -0.92784E-02   -0.10529E-01  6144   0.250E-01    0.307E-01
DAV:   3    -0.360003588934E+04    0.37026E-03   -0.26553E-03  6784   0.489E-02    0.189E-01
DAV:   4    -0.360003571372E+04    0.17562E-03   -0.40012E-04  6272   0.184E-02    0.132E-01
DAV:   5    -0.360003559945E+04    0.11427E-03   -0.26297E-04  6272   0.170E-02    0.411E-02
DAV:   6    -0.360003560765E+04   -0.82058E-05   -0.97809E-05  6272   0.822E-03    0.103E-02
DAV:   7    -0.360003560709E+04    0.55920E-06   -0.53131E-06  6272   0.224E-03
 augmentation electrons   1812.81314522060     
 soft         electrons  0.000000000000000E+000
 total        electrons   1812.81314522060     
 augmentation electrons -8.194179382528478E-002
 soft         electrons  0.000000000000000E+000
 total        electrons -8.194179382528478E-002
 augmentation electrons   2748.49595791073     
 soft         electrons  0.000000000000000E+000
 total        electrons   2748.49595791073     
 augmentation electrons   2690.97879803873     
 soft         electrons  0.000000000000000E+000
 total        electrons   2690.97879803873     
 augmentation electrons   55.7802343744434     
 soft         electrons   1757.03283896273     
 total        electrons   1812.81307333718     
 augmentation electrons   38.2148591483786     
 soft         electrons   1757.03283896273     
 total        electrons   59.9180254569694     
 translations:           0           1           0
  11 F= -.36379787E+04 E0= -.36379787E+04  d E =-.163773E-01  mag=    60.0000
 trial-energy change:   -0.016377  1 .order   -0.019514   -0.041679    0.002651
 step:   0.3864(harm=  0.4023)  dis= 0.00650  next Energy= -3637.978841 (dE=-0.165E-01)
 bond charge predicted
       N       E                     dE             d eps       ncg     rms          rms(c)
DAV:   1    -0.360003577322E+04   -0.16557E-03   -0.22664E-02  5760   0.139E-01    0.538E-02
DAV:   2    -0.360003585816E+04   -0.84937E-04   -0.96933E-04  6144   0.242E-02    0.300E-02
DAV:   3    -0.360003585479E+04    0.33697E-05   -0.24172E-05  6912   0.469E-03    0.182E-02
DAV:   4    -0.360003585299E+04    0.17959E-05   -0.36066E-06  6400   0.179E-03    0.127E-02
DAV:   5    -0.360003585156E+04    0.14314E-05   -0.22904E-06  5504   0.182E-03    0.414E-03
DAV:   6    -0.360003585154E+04    0.25553E-07   -0.12354E-06  5248   0.101E-03
 augmentation electrons   1812.81058688603     
 soft         electrons  0.000000000000000E+000
 total        electrons   1812.81058688603     
 augmentation electrons -8.188292960304100E-002
 soft         electrons  0.000000000000000E+000
 total        electrons -8.188292960304100E-002
 augmentation electrons   2745.55361524373     
 soft         electrons  0.000000000000000E+000
 total        electrons   2745.55361524373     
 augmentation electrons   2688.03645537173     
 soft         electrons  0.000000000000000E+000
 total        electrons   2688.03645537173     
 augmentation electrons   55.7775052523754     
 soft         electrons   1757.03300944896     
 total        electrons   1812.81051470134     
 augmentation electrons   38.2143893297707     
 soft         electrons   1757.03300944896     
 total        electrons   59.9180842751093     
 translations:           0           1           0
  12 F= -.36379791E+04 E0= -.36379791E+04  d E =-.167195E-01  mag=    60.0000
 curvature:  -0.20 expect dE=-0.109E-01 dE for cont linesearch -0.139E-04
 trial: gam= 0.66253 g(F)=  0.545E-01 g(S)=  0.000E+00 ort = 0.331E-02 (trialstep = 0.420E+00)
 search vector abs. value=  0.128E+00
 bond charge predicted
       N       E                     dE             d eps       ncg     rms          rms(c)
DAV:   1    -0.360004482221E+04   -0.89706E-02   -0.16670E+00  5376   0.107E+00    0.467E-01
DAV:   2    -0.360005199849E+04   -0.71763E-02   -0.77461E-02  6016   0.188E-01    0.225E-01
DAV:   3    -0.360005185225E+04    0.14624E-03   -0.15668E-03  6400   0.354E-02    0.141E-01
DAV:   4    -0.360005174997E+04    0.10228E-03   -0.23129E-04  6528   0.138E-02    0.995E-02
DAV:   5    -0.360005169390E+04    0.56068E-04   -0.16574E-04  6400   0.125E-02    0.351E-02
DAV:   6    -0.360005169863E+04   -0.47319E-05   -0.52548E-05  6528   0.576E-03    0.789E-03
DAV:   7    -0.360005169822E+04    0.41639E-06   -0.30902E-06  6400   0.183E-03
 augmentation electrons   1812.83571467109     
 soft         electrons  0.000000000000000E+000
 total        electrons   1812.83571467109     
 augmentation electrons -8.180682524357263E-002
 soft         electrons  0.000000000000000E+000
 total        electrons -8.180682524357263E-002
 augmentation electrons   2757.74030839999     
 soft         electrons  0.000000000000000E+000
 total        electrons   2757.74030839999     
 augmentation electrons   2700.22314852799     
 soft         electrons  0.000000000000000E+000
 total        electrons   2700.22314852799     
 augmentation electrons   55.8049359862405     
 soft         electrons   1757.03071125505     
 total        electrons   1812.83564724129     
 augmentation electrons   38.2156043646984     
 soft         electrons   1757.03071125505     
 total        electrons   59.9181608220650     
 translations:           0           1           0
  13 F= -.36379928E+04 E0= -.36379928E+04  d E =-.137933E-01  mag=    60.0000
 trial-energy change:   -0.013793  1 .order   -0.016299   -0.023788   -0.008809
 step:   0.6664(harm=  0.6664)  dis= 0.01071  next Energy= -3637.997942 (dE=-0.189E-01)
 bond charge predicted
       N       E                     dE             d eps       ncg     rms          rms(c)
DAV:   1    -0.360005099538E+04    0.70325E-03   -0.57732E-01  5760   0.627E-01    0.275E-01
DAV:   2    -0.360005349517E+04   -0.24998E-02   -0.26941E-02  6016   0.111E-01    0.133E-01
DAV:   3    -0.360005344477E+04    0.50401E-04   -0.54479E-04  6400   0.209E-02    0.834E-02
DAV:   4    -0.360005340994E+04    0.34830E-04   -0.80911E-05  6528   0.811E-03    0.587E-02
DAV:   5    -0.360005339199E+04    0.17941E-04   -0.57765E-05  6528   0.727E-03    0.207E-02
DAV:   6    -0.360005339406E+04   -0.20665E-05   -0.17516E-05  6528   0.327E-03    0.458E-03
DAV:   7    -0.360005339405E+04    0.13490E-07   -0.85736E-07  4480   0.102E-03
 augmentation electrons   1812.84195836181     
 soft         electrons  0.000000000000000E+000
 total        electrons   1812.84195836181     
 augmentation electrons -8.179646916665081E-002
 soft         electrons  0.000000000000000E+000
 total        electrons -8.179646916665081E-002
 augmentation electrons   2755.24351476345     
 soft         electrons  0.000000000000000E+000
 total        electrons   2755.24351476345     
 augmentation electrons   2697.72635489145     
 soft         electrons  0.000000000000000E+000
 total        electrons   2697.72635489145     
 augmentation electrons   55.8125717692813     
 soft         electrons   1757.02932171896     
 total        electrons   1812.84189348824     
 augmentation electrons   38.2163014530284     
 soft         electrons   1757.02932171896     
 total        electrons   59.9181714394356     
 translations:           0           1           0
  14 F= -.36379933E+04 E0= -.36379933E+04  d E =-.142756E-01  mag=    60.0000
 curvature:  -0.75 expect dE=-0.672E-01 dE for cont linesearch -0.242E-04
 trial: gam= 1.59422 g(F)=  0.890E-01 g(S)=  0.000E+00 ort =-0.203E-02 (trialstep = 0.147E+00)
 search vector abs. value=  0.409E+00
 bond charge predicted
       N       E                     dE             d eps       ncg     rms          rms(c)
DAV:   1    -0.360006362739E+04   -0.10233E-01   -0.62193E-01  5632   0.566E-01    0.294E-01
DAV:   2    -0.360006659281E+04   -0.29654E-02   -0.30399E-02  5760   0.101E-01    0.132E-01
DAV:   3    -0.360006657990E+04    0.12913E-04   -0.51378E-04  6272   0.174E-02    0.815E-02
DAV:   4    -0.360006655911E+04    0.20786E-04   -0.42354E-05  6272   0.486E-03    0.634E-02
DAV:   5    -0.360006653033E+04    0.28780E-04   -0.86207E-05  6400   0.820E-03    0.279E-02
DAV:   6    -0.360006653236E+04   -0.20234E-05   -0.23895E-05  6528   0.347E-03    0.640E-03
DAV:   7    -0.360006653209E+04    0.26860E-06   -0.18314E-06  5376   0.132E-03
 augmentation electrons   1812.85643635712     
 soft         electrons  0.000000000000000E+000
 total        electrons   1812.85643635712     
 augmentation electrons -8.115699470938068E-002
 soft         electrons  0.000000000000000E+000
 total        electrons -8.115699470938068E-002
 augmentation electrons   2752.40624559354     
 soft         electrons  0.000000000000000E+000
 total        electrons   2752.40624559354     
 augmentation electrons   2694.88908572154     
 soft         electrons  0.000000000000000E+000
 total        electrons   2694.88908572154     
 augmentation electrons   55.8276105196449     
 soft         electrons   1757.02876324210     
 total        electrons   1812.85637376174     
 augmentation electrons   38.2166176867500     
 soft         electrons   1757.02876324210     
 total        electrons   59.9188112225361     
 translations:           0           1           0
  15 F= -.36380051E+04 E0= -.36380051E+04  d E =-.118117E-01  mag=    60.0000
 ZBRENT: can't locate minimum, use default step
 trial-energy change:   -0.011812  1 .order   -0.011569   -0.012634   -0.010504
 step:   0.5890(harm=  0.8734)  dis= 0.01706  next Energy= -3638.030794 (dE=-0.375E-01)
 bond charge predicted
       N       E                     dE             d eps       ncg     rms          rms(c)
DAV:   1    -0.360007089799E+04   -0.43656E-02   -0.55915E+00  5376   0.170E+00    0.885E-01
DAV:   2    -0.360009756619E+04   -0.26668E-01   -0.27383E-01  5760   0.305E-01    0.398E-01
DAV:   3    -0.360009745175E+04    0.11444E-03   -0.46300E-03  6400   0.525E-02    0.246E-01
DAV:   4    -0.360009726535E+04    0.18640E-03   -0.38032E-04  6272   0.146E-02    0.191E-01
DAV:   5    -0.360009699983E+04    0.26552E-03   -0.77177E-04  6656   0.247E-02    0.844E-02
DAV:   6    -0.360009701631E+04   -0.16481E-04   -0.21719E-04  6528   0.106E-02    0.195E-02
DAV:   7    -0.360009701395E+04    0.23650E-05   -0.18048E-05  6272   0.410E-03    0.794E-03
DAV:   8    -0.360009701317E+04    0.77598E-06   -0.37024E-06  5888   0.214E-03
 augmentation electrons   1812.84905084428     
 soft         electrons  0.000000000000000E+000
 total        electrons   1812.84905084428     
 augmentation electrons -8.050845545362321E-002
 soft         electrons  0.000000000000000E+000
 total        electrons -8.050845545362321E-002
 augmentation electrons   2725.01219548852     
 soft         electrons  0.000000000000000E+000
 total        electrons   2725.01219548852     
 augmentation electrons   2667.49503561652     
 soft         electrons  0.000000000000000E+000
 total        electrons   2667.49503561652     
 augmentation electrons   55.8218660639750     
 soft         electrons   1757.02712742768     
 total        electrons   1812.84899349165     
 augmentation electrons   38.2163308063642     
 soft         electrons   1757.02712742768     
 total        electrons   59.9194606616071     
 translations:           0           1           0
  16 F= -.36380316E+04 E0= -.36380316E+04  d E =-.383178E-01  mag=    60.0000
 curvature:  -1.76 expect dE=-0.113E+00 dE for cont linesearch -0.106E-01
 ZBRENT: increasing intervall
 opt :   1.4726  next Energy= -3638.056446 (dE=-0.631E-01)
 bond charge predicted
       N       E                     dE             d eps       ncg     rms          rms(c)
DAV:   1    -0.360002337056E+04    0.73643E-01   -0.22345E+01  5504   0.340E+00    0.178E+00
DAV:   2    -0.360012974881E+04   -0.10638E+00   -0.10929E+00  6016   0.613E-01    0.802E-01
DAV:   3    -0.360012936676E+04    0.38206E-03   -0.18679E-02  6400   0.105E-01    0.495E-01
DAV:   4    -0.360012863208E+04    0.73468E-03   -0.15205E-03  6400   0.293E-02    0.387E-01
DAV:   5    -0.360012756659E+04    0.10655E-02   -0.30539E-03  6528   0.493E-02    0.171E-01
DAV:   6    -0.360012762993E+04   -0.63339E-04   -0.86817E-04  6528   0.214E-02    0.401E-02
DAV:   7    -0.360012762093E+04    0.89961E-05   -0.73945E-05  6272   0.839E-03    0.162E-02
DAV:   8    -0.360012761771E+04    0.32240E-05   -0.15060E-05  6656   0.435E-03    0.647E-03
DAV:   9    -0.360012761661E+04    0.10943E-05   -0.44051E-06  6656   0.237E-03    0.410E-03
DAV:  10    -0.360012761575E+04    0.86466E-06   -0.59956E-07  4608   0.165E-03
 augmentation electrons   1812.56851463127     
 soft         electrons  0.000000000000000E+000
 total        electrons   1812.56851463127     
 augmentation electrons -7.912497790636858E-002
 soft         electrons  0.000000000000000E+000
 total        electrons -7.912497790636858E-002
 augmentation electrons   2566.30253390811     
 soft         electrons  0.000000000000000E+000
 total        electrons   2566.30253390811     
 augmentation electrons   2508.78537403611     
 soft         electrons  0.000000000000000E+000
 total        electrons   2508.78537403611     
 augmentation electrons   55.5446774586793     
 soft         electrons   1757.02377907148     
 total        electrons   1812.56845653016     
 augmentation electrons   38.2161202394819     
 soft         electrons   1757.02377907148     
 total        electrons   59.9208457248958     
 translations:           0           1           0
  17 F= -.36380544E+04 E0= -.36380544E+04  d E =-.610665E-01  mag=    60.0000
 curvature:  -4.10 expect dE=-0.875E+00 dE for cont linesearch -0.101E-04
 trial: gam= 2.43324 g(F)=  0.213E+00 g(S)=  0.000E+00 ort = 0.100E-02 (trialstep = 0.639E-01)
 search vector abs. value=  0.264E+01
 bond charge predicted
       N       E                     dE             d eps       ncg     rms          rms(c)
DAV:   1    -0.360013897339E+04   -0.11357E-01   -0.75212E-01  5760   0.625E-01    0.323E-01
DAV:   2    -0.360014254425E+04   -0.35709E-02   -0.36869E-02  5888   0.114E-01    0.149E-01
DAV:   3    -0.360014252815E+04    0.16100E-04   -0.64225E-04  6272   0.197E-02    0.915E-02
DAV:   4    -0.360014250223E+04    0.25920E-04   -0.53225E-05  6528   0.561E-03    0.712E-02
DAV:   5    -0.360014246789E+04    0.34344E-04   -0.96742E-05  6400   0.873E-03    0.309E-02
DAV:   6    -0.360014247008E+04   -0.21879E-05   -0.28507E-05  6528   0.384E-03    0.668E-03
DAV:   7    -0.360014246977E+04    0.31012E-06   -0.20690E-06  5376   0.141E-03
 augmentation electrons   1812.51015680201     
 soft         electrons  0.000000000000000E+000
 total        electrons   1812.51015680201     
 augmentation electrons -7.901091360662726E-002
 soft         electrons  0.000000000000000E+000
 total        electrons -7.901091360662726E-002
 augmentation electrons   2536.86183781937     
 soft         electrons  0.000000000000000E+000
 total        electrons   2536.86183781937     
 augmentation electrons   2479.34467794737     
 soft         electrons  0.000000000000000E+000
 total        electrons   2479.34467794737     
 augmentation electrons   55.4861304128582     
 soft         electrons   1757.02396635677     
 total        electrons   1812.51009676963     
 augmentation electrons   38.2156440282103     
 soft         electrons   1757.02396635677     
 total        electrons   59.9209600717465     
 translations:           0           1           0
  18 F= -.36380680E+04 E0= -.36380680E+04  d E =-.136235E-01  mag=    60.0000
 ZBRENT: can't locate minimum, use default step
 trial-energy change:   -0.013624  1 .order   -0.013081   -0.013778   -0.012384
 step:   0.2555(harm=  0.6315)  dis= 0.01831  next Energy= -3638.122497 (dE=-0.681E-01)
 bond charge predicted
       N       E                     dE             d eps       ncg     rms          rms(c)
DAV:   1    -0.360014308187E+04   -0.61179E-03   -0.67895E+00  5376   0.188E+00    0.977E-01
DAV:   2    -0.360017528600E+04   -0.32204E-01   -0.33240E-01  5888   0.341E-01    0.447E-01
DAV:   3    -0.360017510650E+04    0.17949E-03   -0.57947E-03  6272   0.596E-02    0.276E-01
DAV:   4    -0.360017486005E+04    0.24646E-03   -0.50109E-04  6400   0.174E-02    0.214E-01
DAV:   5    -0.360017453365E+04    0.32640E-03   -0.88984E-04  6400   0.272E-02    0.932E-02
DAV:   6    -0.360017455080E+04   -0.17158E-04   -0.27022E-04  6528   0.122E-02    0.206E-02
DAV:   7    -0.360017454805E+04    0.27547E-05   -0.23559E-05  6272   0.476E-03    0.902E-03
DAV:   8    -0.360017454668E+04    0.13733E-05   -0.46686E-06  6400   0.251E-03    0.361E-03
DAV:   9    -0.360017454619E+04    0.48267E-06   -0.12084E-06  5504   0.144E-03
 augmentation electrons   1812.33839347341     
 soft         electrons  0.000000000000000E+000
 total        electrons   1812.33839347341     
 augmentation electrons -7.815859323826359E-002
 soft         electrons  0.000000000000000E+000
 total        electrons -7.815859323826359E-002
 augmentation electrons   2457.95541277269     
 soft         electrons  0.000000000000000E+000
 total        electrons   2457.95541277269     
 augmentation electrons   2400.43825290069     
 soft         electrons  0.000000000000000E+000
 total        electrons   2400.43825290069     
 augmentation electrons   55.3136078663453     
 soft         electrons   1757.02472072808     
 total        electrons   1812.33832859443     
 augmentation electrons   38.2147725023829     
 soft         electrons   1757.02472072808     
 total        electrons   59.9218131685175     
 translations:           0           1           0
  19 F= -.36380964E+04 E0= -.36380964E+04  d E =-.419979E-01  mag=    60.0000
 curvature:  -2.17 expect dE=-0.130E+00 dE for cont linesearch -0.710E-02
 ZBRENT: increasing intervall
 opt :   0.6388  next Energy= -3638.093338 (dE=-0.389E-01)
 bond charge predicted
       N       E                     dE             d eps       ncg     rms          rms(c)
DAV:   1    -0.360005894767E+04    0.11560E+00   -0.27115E+01  5504   0.376E+00    0.197E+00
DAV:   2    -0.360018757452E+04   -0.12863E+00   -0.13290E+00  5888   0.687E-01    0.894E-01
DAV:   3    -0.360018692512E+04    0.64940E-03   -0.23198E-02  6400   0.120E-01    0.551E-01
DAV:   4    -0.360018595249E+04    0.97263E-03   -0.20033E-03  6400   0.351E-02    0.428E-01
DAV:   5    -0.360018467058E+04    0.12819E-02   -0.34498E-03  6528   0.541E-02    0.188E-01
DAV:   6    -0.360018473528E+04   -0.64709E-04   -0.10625E-03  6528   0.247E-02    0.423E-02
DAV:   7    -0.360018472589E+04    0.93940E-05   -0.96635E-05  6272   0.977E-03    0.184E-02
DAV:   8    -0.360018472055E+04    0.53362E-05   -0.18221E-05  6656   0.509E-03    0.728E-03
DAV:   9    -0.360018471878E+04    0.17755E-05   -0.52189E-06  6784   0.295E-03    0.473E-03
DAV:  10    -0.360018471763E+04    0.11480E-05   -0.12824E-06  5504   0.216E-03    0.268E-03
DAV:  11    -0.360018471675E+04    0.87982E-06   -0.79999E-07  5120   0.204E-03
 augmentation electrons   1812.03692689411     
 soft         electrons  0.000000000000000E+000
 total        electrons   1812.03692689411     
 augmentation electrons -7.344615283603310E-002
 soft         electrons  0.000000000000000E+000
 total        electrons -7.344615283603310E-002
 augmentation electrons   2376.03038381682     
 soft         electrons  0.000000000000000E+000
 total        electrons   2376.03038381682     
 augmentation electrons   2318.51322394482     
 soft         electrons  0.000000000000000E+000
 total        electrons   2318.51322394482     
 augmentation electrons   55.0107149211317     
 soft         electrons   1757.02615850122     
 total        electrons   1812.03687342235     
 augmentation electrons   38.2163443109427     
 soft         electrons   1757.02615850122     
 total        electrons   59.9265268381187     
 translations:           0           1           0
  20 F= -.36380993E+04 E0= -.36380993E+04  d E =-.449111E-01  mag=    60.0000
 curvature:   0.93 expect dE= 0.223E+00 dE for cont linesearch  0.327E-02
 ZBRENT: bracketing found
 ZBRENT: interpolating
 opt :   0.4439  next Energy= -3638.105145 (dE=-0.508E-01)
 bond charge predicted
       N       E                     dE             d eps       ncg     rms          rms(c)
DAV:   1    -0.360015599231E+04    0.28725E-01   -0.70254E+00  5504   0.193E+00    0.987E-01
DAV:   2    -0.360018895276E+04   -0.32960E-01   -0.33992E-01  5888   0.350E-01    0.447E-01
DAV:   3    -0.360018878530E+04    0.16746E-03   -0.59463E-03  6400   0.611E-02    0.274E-01
DAV:   4    -0.360018852513E+04    0.26018E-03   -0.53338E-04  6400   0.184E-02    0.212E-01
DAV:   5    -0.360018819787E+04    0.32726E-03   -0.88142E-04  6400   0.284E-02    0.906E-02
DAV:   6    -0.360018821389E+04   -0.16019E-04   -0.27477E-04  6528   0.127E-02    0.200E-02
DAV:   7    -0.360018821110E+04    0.27867E-05   -0.25069E-05  6272   0.501E-03    0.904E-03
DAV:   8    -0.360018820930E+04    0.18037E-05   -0.46017E-06  6528   0.276E-03    0.374E-03
DAV:   9    -0.360018820869E+04    0.60981E-06   -0.14566E-06  5760   0.167E-03
 augmentation electrons   1812.18129577491     
 soft         electrons  0.000000000000000E+000
 total        electrons   1812.18129577491     
 augmentation electrons -7.593611942806450E-002
 soft         electrons  0.000000000000000E+000
 total        electrons -7.593611942806450E-002
 augmentation electrons   2402.39327366469     
 soft         electrons  0.000000000000000E+000
 total        electrons   2402.39327366469     
 augmentation electrons   2344.87611379269     
 soft         electrons  0.000000000000000E+000
 total        electrons   2344.87611379269     
 augmentation electrons   55.1558691721292     
 soft         electrons   1757.02536410882     
 total        electrons   1812.18123328095     
 augmentation electrons   38.2154139451869     
 soft         electrons   1757.02536410882     
 total        electrons   59.9240363157908     
 translations:           0           1           0
  21 F= -.36381065E+04 E0= -.36381065E+04  d E =-.520873E-01  mag=    60.0000
 curvature:  -2.49 expect dE=-0.216E+00 dE for cont linesearch -0.147E-03
 trial: gam= 0.46928 g(F)=  0.865E-01 g(S)=  0.000E+00 ort = 0.125E-01 (trialstep = 0.140E+00)
 search vector abs. value=  0.679E+00
 bond charge predicted
       N       E                     dE             d eps       ncg     rms          rms(c)
DAV:   1    -0.360019558920E+04   -0.73799E-02   -0.95599E-01  5504   0.755E-01    0.367E-01
DAV:   2    -0.360020011816E+04   -0.45290E-02   -0.46959E-02  6144   0.133E-01    0.168E-01
DAV:   3    -0.360020008777E+04    0.30396E-04   -0.87259E-04  6400   0.235E-02    0.104E-01
DAV:   4    -0.360020004687E+04    0.40899E-04   -0.79691E-05  6528   0.716E-03    0.787E-02
DAV:   5    -0.360020000232E+04    0.44549E-04   -0.12703E-04  6400   0.108E-02    0.311E-02
DAV:   6    -0.360020000540E+04   -0.30834E-05   -0.38977E-05  6528   0.481E-03    0.662E-03
DAV:   7    -0.360020000480E+04    0.59864E-06   -0.31907E-06  6272   0.178E-03
 augmentation electrons   1812.13091815532     
 soft         electrons  0.000000000000000E+000
 total        electrons   1812.13091815532     
 augmentation electrons -7.505215257023300E-002
 soft         electrons  0.000000000000000E+000
 total        electrons -7.505215257023300E-002
 augmentation electrons   2393.49207471455     
 soft         electrons  0.000000000000000E+000
 total        electrons   2393.49207471455     
 augmentation electrons   2335.97491484255     
 soft         electrons  0.000000000000000E+000
 total        electrons   2335.97491484255     
 augmentation electrons   55.1044074761002     
 soft         electrons   1757.02645116150     
 total        electrons   1812.13085863760     
 augmentation electrons   38.2153556560425     
 soft         electrons   1757.02645116150     
 total        electrons   59.9249205475711     
 translations:           0           1           0
  22 F= -.36381166E+04 E0= -.36381166E+04  d E =-.100804E-01  mag=    60.0000
 trial-energy change:   -0.010080  1 .order   -0.010450   -0.012923   -0.007976
 step:   0.3654(harm=  0.3654)  dis= 0.01257  next Energy= -3638.123362 (dE=-0.169E-01)
 bond charge predicted
       N       E                     dE             d eps       ncg     rms          rms(c)
DAV:   1    -0.360019792654E+04    0.20789E-02   -0.24798E+00  5504   0.122E+00    0.588E-01
DAV:   2    -0.360020967704E+04   -0.11750E-01   -0.12165E-01  6144   0.214E-01    0.273E-01
DAV:   3    -0.360020961318E+04    0.63861E-04   -0.22600E-03  6400   0.376E-02    0.168E-01
DAV:   4    -0.360020951222E+04    0.10096E-03   -0.19673E-04  6656   0.110E-02    0.128E-01
DAV:   5    -0.360020940219E+04    0.11003E-03   -0.32880E-04  6528   0.167E-02    0.504E-02
DAV:   6    -0.360020941091E+04   -0.87173E-05   -0.93294E-05  6528   0.719E-03    0.105E-02
DAV:   7    -0.360020940970E+04    0.12048E-05   -0.66594E-06  6272   0.257E-03    0.514E-03
DAV:   8    -0.360020940937E+04    0.33503E-06   -0.16483E-06  5120   0.138E-03
 augmentation electrons   1812.05713644330     
 soft         electrons  0.000000000000000E+000
 total        electrons   1812.05713644330     
 augmentation electrons -7.328892460364345E-002
 soft         electrons  0.000000000000000E+000
 total        electrons -7.328892460364345E-002
 augmentation electrons   2388.88257024754     
 soft         electrons  0.000000000000000E+000
 total        electrons   2388.88257024754     
 augmentation electrons   2331.36541037554     
 soft         electrons  0.000000000000000E+000
 total        electrons   2331.36541037554     
 augmentation electrons   55.0288766985698     
 soft         electrons   1757.02820591642     
 total        electrons   1812.05708261499     
 augmentation electrons   38.2156218932026     
 soft         electrons   1757.02820591642     
 total        electrons   59.9266841307914     
 translations:           0           1           0
  23 F= -.36381232E+04 E0= -.36381232E+04  d E =-.167481E-01  mag=    60.0000
 curvature:  -1.34 expect dE=-0.406E-01 dE for cont linesearch -0.819E-05
 trial: gam= 0.28977 g(F)=  0.303E-01 g(S)=  0.000E+00 ort = 0.204E-02 (trialstep = 0.185E+00)
 search vector abs. value=  0.885E-01
 bond charge predicted
       N       E                     dE             d eps       ncg     rms          rms(c)
DAV:   1    -0.360021293762E+04   -0.35279E-02   -0.23526E-01  5888   0.465E-01    0.180E-01
DAV:   2    -0.360021398083E+04   -0.10432E-02   -0.11166E-02  6016   0.783E-02    0.906E-02
DAV:   3    -0.360021396384E+04    0.16989E-04   -0.28124E-04  6656   0.152E-02    0.561E-02
DAV:   4    -0.360021394898E+04    0.14862E-04   -0.39765E-05  6400   0.587E-03    0.387E-02
DAV:   5    -0.360021394306E+04    0.59191E-05   -0.20314E-05  6272   0.491E-03    0.133E-02
DAV:   6    -0.360021394418E+04   -0.11195E-05   -0.69542E-06  6272   0.221E-03    0.303E-03
DAV:   7    -0.360021394426E+04   -0.81782E-07   -0.35276E-07  3584   0.653E-04
 augmentation electrons   1812.04051748067     
 soft         electrons  0.000000000000000E+000
 total        electrons   1812.04051748067     
 augmentation electrons -7.238566214439122E-002
 soft         electrons  0.000000000000000E+000
 total        electrons -7.238566214439122E-002
 augmentation electrons   2393.43495342847     
 soft         electrons  0.000000000000000E+000
 total        electrons   2393.43495342847     
 augmentation electrons   2335.91779355647     
 soft         electrons  0.000000000000000E+000
 total        electrons   2335.91779355647     
 augmentation electrons   55.0118985035887     
 soft         electrons   1757.02856677732     
 total        electrons   1812.04046528091     
 augmentation electrons   38.2159776409260     
 soft         electrons   1757.02856677732     
 total        electrons   59.9275875096520     
 translations:           0           1           0
  24 F= -.36381268E+04 E0= -.36381268E+04  d E =-.359817E-02  mag=    60.0000
 trial-energy change:   -0.003598  1 .order   -0.004166   -0.005707   -0.002625
 step:   0.3425(harm=  0.3425)  dis= 0.00344  next Energy= -3638.128513 (dE=-0.528E-02)
 bond charge predicted
       N       E                     dE             d eps       ncg     rms          rms(c)
DAV:   1    -0.360021470712E+04   -0.76294E-03   -0.17124E-01  6016   0.396E-01    0.154E-01
DAV:   2    -0.360021546416E+04   -0.75704E-03   -0.81073E-03  6016   0.667E-02    0.770E-02
DAV:   3    -0.360021545109E+04    0.13068E-04   -0.20480E-04  6656   0.129E-02    0.476E-02
DAV:   4    -0.360021544007E+04    0.11017E-04   -0.29710E-05  6400   0.510E-03    0.328E-02
DAV:   5    -0.360021543585E+04    0.42203E-05   -0.14948E-05  6528   0.426E-03    0.113E-02
DAV:   6    -0.360021543672E+04   -0.86633E-06   -0.52655E-06  6144   0.195E-03
 augmentation electrons   1812.02790880147     
 soft         electrons  0.000000000000000E+000
 total        electrons   1812.02790880147     
 augmentation electrons -7.141385668315464E-002
 soft         electrons  0.000000000000000E+000
 total        electrons -7.141385668315464E-002
 augmentation electrons   2398.73014426010     
 soft         electrons  0.000000000000000E+000
 total        electrons   2398.73014426010     
 augmentation electrons   2341.21298438810     
 soft         electrons  0.000000000000000E+000
 total        electrons   2341.21298438810     
 augmentation electrons   54.9989555995495     
 soft         electrons   1757.02890234996     
 total        electrons   1812.02785794951     
 augmentation electrons   38.2164784334956     
 soft         electrons   1757.02890234996     
 total        electrons   59.9285594056530     
 translations:           0           1           0
  25 F= -.36381275E+04 E0= -.36381275E+04  d E =-.429353E-02  mag=    60.0000
 curvature:  -0.49 expect dE=-0.494E-02 dE for cont linesearch -0.152E-05
 trial: gam= 0.37664 g(F)=  0.101E-01 g(S)=  0.000E+00 ort = 0.523E-03 (trialstep = 0.216E+00)
 search vector abs. value=  0.230E-01
 bond charge predicted
       N       E                     dE             d eps       ncg     rms          rms(c)
DAV:   1    -0.360021701882E+04   -0.15830E-02   -0.76423E-02  6144   0.313E-01    0.120E-01
DAV:   2    -0.360021746675E+04   -0.44792E-03   -0.44359E-03  6016   0.508E-02    0.572E-02
DAV:   3    -0.360021747213E+04   -0.53790E-05   -0.11981E-04  6528   0.981E-03    0.319E-02
DAV:   4    -0.360021746834E+04    0.37848E-05   -0.10911E-05  6400   0.316E-03    0.225E-02
DAV:   5    -0.360021746633E+04    0.20133E-05   -0.72585E-06  6016   0.332E-03    0.804E-03
DAV:   6    -0.360021746679E+04   -0.46544E-06   -0.25162E-06  5248   0.137E-03
 augmentation electrons   1812.02239250788     
 soft         electrons  0.000000000000000E+000
 total        electrons   1812.02239250788     
 augmentation electrons -7.084102040248969E-002
 soft         electrons  0.000000000000000E+000
 total        electrons -7.084102040248969E-002
 augmentation electrons   2406.37095394592     
 soft         electrons  0.000000000000000E+000
 total        electrons   2406.37095394592     
 augmentation electrons   2348.85379407392     
 soft         electrons  0.000000000000000E+000
 total        electrons   2348.85379407392     
 augmentation electrons   54.9930325349693     
 soft         electrons   1757.02930998847     
 total        electrons   1812.02234252344     
 augmentation electrons   38.2166018648776     
 soft         electrons   1757.02930998847     
 total        electrons   59.9291323270152     
 translations:           0           1           0
  26 F= -.36381293E+04 E0= -.36381293E+04  d E =-.172834E-02  mag=    60.0000
 trial-energy change:   -0.001728  1 .order   -0.001811   -0.002220   -0.001401
 step:   0.5863(harm=  0.5863)  dis= 0.00308  next Energy= -3638.130530 (dE=-0.301E-02)
 bond charge predicted
       N       E                     dE             d eps       ncg     rms          rms(c)
DAV:   1    -0.360021770609E+04   -0.23976E-03   -0.22284E-01  6144   0.534E-01    0.205E-01
DAV:   2    -0.360021900964E+04   -0.13036E-02   -0.12925E-02  6016   0.866E-02    0.976E-02
DAV:   3    -0.360021902475E+04   -0.15105E-04   -0.34840E-04  6528   0.167E-02    0.546E-02
DAV:   4    -0.360021901325E+04    0.11499E-04   -0.31791E-05  6400   0.541E-03    0.384E-02
DAV:   5    -0.360021900658E+04    0.66651E-05   -0.21205E-05  6272   0.570E-03    0.137E-02
DAV:   6    -0.360021900771E+04   -0.11253E-05   -0.74476E-06  6400   0.235E-03    0.312E-03
DAV:   7    -0.360021900768E+04    0.28391E-07   -0.32842E-07  3584   0.696E-04
 augmentation electrons   1812.01529863460     
 soft         electrons  0.000000000000000E+000
 total        electrons   1812.01529863460     
 augmentation electrons -6.953549973538917E-002
 soft         electrons  0.000000000000000E+000
 total        electrons -6.953549973538917E-002
 augmentation electrons   2425.31976950719     
 soft         electrons  0.000000000000000E+000
 total        electrons   2425.31976950719     
 augmentation electrons   2367.80260963519     
 soft         electrons  0.000000000000000E+000
 total        electrons   2367.80260963519     
 augmentation electrons   54.9852260024292     
 soft         electrons   1757.03002410749     
 total        electrons   1812.01525010992     
 augmentation electrons   38.2171360754040     
 soft         electrons   1757.03002410749     
 total        electrons   59.9304379906546     
 translations:           0           1           0
  27 F= -.36381303E+04 E0= -.36381303E+04  d E =-.275554E-02  mag=    60.0000
 curvature:  -0.66 expect dE=-0.765E-02 dE for cont linesearch -0.397E-07
 trial: gam= 1.07831 g(F)=  0.116E-01 g(S)=  0.000E+00 ort = 0.373E-04 (trialstep = 0.174E+00)
 search vector abs. value=  0.385E-01
 bond charge predicted
       N       E                     dE             d eps       ncg     rms          rms(c)
DAV:   1    -0.360022051729E+04   -0.15096E-02   -0.80820E-02  6144   0.334E-01    0.127E-01
DAV:   2    -0.360022100124E+04   -0.48395E-03   -0.47878E-03  6016   0.534E-02    0.605E-02
DAV:   3    -0.360022100806E+04   -0.68173E-05   -0.13338E-04  6528   0.104E-02    0.335E-02
DAV:   4    -0.360022100363E+04    0.44268E-05   -0.11491E-05  6400   0.326E-03    0.235E-02
DAV:   5    -0.360022100084E+04    0.27935E-05   -0.79421E-06  6144   0.354E-03    0.822E-03
DAV:   6    -0.360022100115E+04   -0.31144E-06   -0.25520E-06  5376   0.140E-03
 augmentation electrons   1812.01320296316     
 soft         electrons  0.000000000000000E+000
 total        electrons   1812.01320296316     
 augmentation electrons -6.862255958920829E-002
 soft         electrons  0.000000000000000E+000
 total        electrons -6.862255958920829E-002
 augmentation electrons   2436.47876074929     
 soft         electrons  0.000000000000000E+000
 total        electrons   2436.47876074929     
 augmentation electrons   2378.96160087729     
 soft         electrons  0.000000000000000E+000
 total        electrons   2378.96160087729     
 augmentation electrons   54.9823392266291     
 soft         electrons   1757.03081622560     
 total        electrons   1812.01315545223     
 augmentation electrons   38.2175345526841     
 soft         electrons   1757.03081622560     
 total        electrons   59.9313510183856     
 translations:           0           1           0
  28 F= -.36381321E+04 E0= -.36381321E+04  d E =-.177424E-02  mag=    60.0000
 trial-energy change:   -0.001774  1 .order   -0.001680   -0.002029   -0.001332
 step:   0.3095(harm=  0.5056)  dis= 0.00217  next Energy= -3638.132619 (dE=-0.234E-02)
 bond charge predicted
       N       E                     dE             d eps       ncg     rms          rms(c)
DAV:   1    -0.360022177032E+04   -0.76948E-03   -0.49520E-02  6144   0.261E-01    0.995E-02
DAV:   2    -0.360022206632E+04   -0.29600E-03   -0.29318E-03  6016   0.418E-02    0.473E-02
DAV:   3    -0.360022207025E+04   -0.39278E-05   -0.81238E-05  6528   0.813E-03    0.262E-02
DAV:   4    -0.360022206744E+04    0.28091E-05   -0.71690E-06  6400   0.258E-03    0.183E-02
DAV:   5    -0.360022206570E+04    0.17373E-05   -0.49416E-06  5888   0.279E-03    0.641E-03
DAV:   6    -0.360022206589E+04   -0.18577E-06   -0.15817E-06  4736   0.111E-03
 augmentation electrons   1812.00241236261     
 soft         electrons  0.000000000000000E+000
 total        electrons   1812.00241236261     
 augmentation electrons -6.990472789994173E-002
 soft         electrons  0.000000000000000E+000
 total        electrons -6.990472789994173E-002
 augmentation electrons   2415.28166952198     
 soft         electrons  0.000000000000000E+000
 total        electrons   2415.28166952198     
 augmentation electrons   2357.76450964998     
 soft         electrons  0.000000000000000E+000
 total        electrons   2357.76450964998     
 augmentation electrons   54.9709033052207     
 soft         electrons   1757.03146234038     
 total        electrons   1812.00236564560     
 augmentation electrons   38.2158476743067     
 soft         electrons   1757.03146234038     
 total        electrons   59.9300689201205     
 translations:           0           1           0
  29 F= -.36381329E+04 E0= -.36381329E+04  d E =-.267059E-02  mag=    60.0000
 curvature:  -0.54 expect dE=-0.286E-02 dE for cont linesearch -0.276E-03
 ZBRENT: increasing intervall
 opt :   0.5811  next Energy= -3638.133270 (dE=-0.299E-02)
 bond charge predicted
       N       E                     dE             d eps       ncg     rms          rms(c)
DAV:   1    -0.360022171293E+04    0.35277E-03   -0.19762E-01  5888   0.523E-01    0.199E-01
DAV:   2    -0.360022289660E+04   -0.11837E-02   -0.11702E-02  6016   0.835E-02    0.945E-02
DAV:   3    -0.360022291326E+04   -0.16663E-04   -0.32586E-04  6528   0.163E-02    0.524E-02
DAV:   4    -0.360022290238E+04    0.10884E-04   -0.28223E-05  6528   0.513E-03    0.366E-02
DAV:   5    -0.360022289547E+04    0.69108E-05   -0.19232E-05  6144   0.554E-03    0.129E-02
DAV:   6    -0.360022289622E+04   -0.75088E-06   -0.64129E-06  6400   0.222E-03
 augmentation electrons   1811.98643073221     
 soft         electrons  0.000000000000000E+000
 total        electrons   1811.98643073221     
 augmentation electrons -7.124202070620658E-002
 soft         electrons  0.000000000000000E+000
 total        electrons -7.124202070620658E-002
 augmentation electrons   2389.36128892834     
 soft         electrons  0.000000000000000E+000
 total        electrons   2389.36128892834     
 augmentation electrons   2331.84412905634     
 soft         electrons  0.000000000000000E+000
 total        electrons   2331.84412905634     
 augmentation electrons   54.9536859652772     
 soft         electrons   1757.03269963577     
 total        electrons   1811.98638560104     
 augmentation electrons   38.2137060403275     
 soft         electrons   1757.03269963577     
 total        electrons   59.9287317713522     
 translations:           0           1           0
  30 F= -.36381334E+04 E0= -.36381334E+04  d E =-.315984E-02  mag=    60.0000
 curvature:  -0.63 expect dE=-0.880E-02 dE for cont linesearch -0.651E-04
 ZBRENT: bracketing found
 ZBRENT: interpolating
 opt :   0.4968  next Energy= -3638.133523 (dE=-0.324E-02)
 bond charge predicted
       N       E                     dE             d eps       ncg     rms          rms(c)
DAV:   1    -0.360022271016E+04    0.18531E-03   -0.18871E-02  5888   0.162E-01    0.612E-02
DAV:   2    -0.360022282405E+04   -0.11389E-03   -0.11203E-03  6016   0.258E-02    0.292E-02
DAV:   3    -0.360022282597E+04   -0.19269E-05   -0.32045E-05  6528   0.509E-03    0.161E-02
DAV:   4    -0.360022282501E+04    0.96478E-06   -0.25360E-06  5632   0.157E-03
 augmentation electrons   1811.99095668688     
 soft         electrons  0.000000000000000E+000
 total        electrons   1811.99095668688     
 augmentation electrons -7.102798217334449E-002
 soft         electrons  0.000000000000000E+000
 total        electrons -7.102798217334449E-002
 augmentation electrons   2396.68726290171     
 soft         electrons  0.000000000000000E+000
 total        electrons   2396.68726290171     
 augmentation electrons   2339.17010302971     
 soft         electrons  0.000000000000000E+000
 total        electrons   2339.17010302971     
 augmentation electrons   54.9586028191433     
 soft         electrons   1757.03230824469     
 total        electrons   1811.99091106384     
 augmentation electrons   38.2141809459783     
 soft         electrons   1757.03230824469     
 total        electrons   59.9289457646136     
 translations:           0           1           0
  31 F= -.36381335E+04 E0= -.36381335E+04  d E =-.319551E-02  mag=    60.0000
 curvature:  -0.81 expect dE=-0.813E-02 dE for cont linesearch -0.423E-06
 trial: gam= 0.91158 g(F)=  0.998E-02 g(S)=  0.000E+00 ort = 0.141E-03 (trialstep = 0.217E+00)
 search vector abs. value=  0.422E-01
 bond charge predicted
       N       E                     dE             d eps       ncg     rms          rms(c)
DAV:   1    -0.360022441830E+04   -0.15923E-02   -0.13240E-01  5632   0.409E-01    0.154E-01
DAV:   2    -0.360022511149E+04   -0.69318E-03   -0.69344E-03  6016   0.645E-02    0.727E-02
DAV:   3    -0.360022511571E+04   -0.42215E-05   -0.18145E-04  6400   0.124E-02    0.416E-02
DAV:   4    -0.360022510757E+04    0.81385E-05   -0.18527E-05  6400   0.426E-03    0.285E-02
DAV:   5    -0.360022510310E+04    0.44669E-05   -0.13325E-05  6400   0.459E-03    0.949E-03
DAV:   6    -0.360022510358E+04   -0.47663E-06   -0.43759E-06  6400   0.188E-03
 augmentation electrons   1811.98324281548     
 soft         electrons  0.000000000000000E+000
 total        electrons   1811.98324281548     
 augmentation electrons -7.139906200179255E-002
 soft         electrons  0.000000000000000E+000
 total        electrons -7.139906200179255E-002
 augmentation electrons   2383.28774257677     
 soft         electrons  0.000000000000000E+000
 total        electrons   2383.28774257677     
 augmentation electrons   2325.77058270477     
 soft         electrons  0.000000000000000E+000
 total        electrons   2325.77058270477     
 augmentation electrons   54.9499191128519     
 soft         electrons   1757.03327926201     
 total        electrons   1811.98319837486     
 augmentation electrons   38.2132532390392     
 soft         electrons   1757.03327926201     
 total        electrons   59.9285747922192     
 translations:           0           1           0
  32 F= -.36381355E+04 E0= -.36381355E+04  d E =-.205492E-02  mag=    60.0000
 trial-energy change:   -0.002055  1 .order   -0.001832   -0.002196   -0.001468
 step:   0.3322(harm=  0.6551)  dis= 0.00253  next Energy= -3638.135951 (dE=-0.248E-02)
 bond charge predicted
       N       E                     dE             d eps       ncg     rms          rms(c)
DAV:   1    -0.360022586127E+04   -0.75816E-03   -0.37008E-02  5632   0.217E-01    0.811E-02
DAV:   2    -0.360022605562E+04   -0.19436E-03   -0.19451E-03  6016   0.341E-02    0.385E-02
DAV:   3    -0.360022605701E+04   -0.13894E-05   -0.49620E-05  6400   0.645E-03    0.221E-02
DAV:   4    -0.360022605478E+04    0.22295E-05   -0.50174E-06  6400   0.220E-03    0.151E-02
DAV:   5    -0.360022605366E+04    0.11246E-05   -0.37863E-06  6144   0.236E-03    0.488E-03
DAV:   6    -0.360022605379E+04   -0.13071E-06   -0.10450E-06  4224   0.908E-04
 augmentation electrons   1811.97907223663     
 soft         electrons  0.000000000000000E+000
 total        electrons   1811.97907223663     
 augmentation electrons -7.155176533250998E-002
 soft         electrons  0.000000000000000E+000
 total        electrons -7.155176533250998E-002
 augmentation electrons   2376.49335350673     
 soft         electrons  0.000000000000000E+000
 total        electrons   2376.49335350673     
 augmentation electrons   2318.97619363473     
 soft         electrons  0.000000000000000E+000
 total        electrons   2318.97619363473     
 augmentation electrons   54.9452185788896     
 soft         electrons   1757.03380984301     
 total        electrons   1811.97902842190     
 augmentation electrons   38.2128101267850     
 soft         electrons   1757.03380984301     
 total        electrons   59.9284221492054     
 translations:           0           1           0
  33 F= -.36381364E+04 E0= -.36381364E+04  d E =-.288796E-02  mag=    60.0000
 curvature:  -0.62 expect dE=-0.374E-02 dE for cont linesearch -0.392E-03
 ZBRENT: increasing intervall
 opt :   0.5620  next Energy= -3638.137178 (dE=-0.370E-02)
 bond charge predicted
       N       E                     dE             d eps       ncg     rms          rms(c)
DAV:   1    -0.360022648166E+04   -0.42800E-03   -0.14745E-01  5632   0.434E-01    0.162E-01
DAV:   2    -0.360022725633E+04   -0.77467E-03   -0.77416E-03  6016   0.681E-02    0.766E-02
DAV:   3    -0.360022726321E+04   -0.68811E-05   -0.19999E-04  6400   0.129E-02    0.440E-02
DAV:   4    -0.360022725489E+04    0.83226E-05   -0.19390E-05  6528   0.433E-03    0.302E-02
DAV:   5    -0.360022725047E+04    0.44204E-05   -0.14537E-05  6400   0.470E-03    0.988E-03
DAV:   6    -0.360022725101E+04   -0.54027E-06   -0.43382E-06  6272   0.185E-03
 augmentation electrons   1811.97021531593     
 soft         electrons  0.000000000000000E+000
 total        electrons   1811.97021531593     
 augmentation electrons -7.226285558644890E-002
 soft         electrons  0.000000000000000E+000
 total        electrons -7.226285558644890E-002
 augmentation electrons   2363.23532484330     
 soft         electrons  0.000000000000000E+000
 total        electrons   2363.23532484330     
 augmentation electrons   2305.71816497130     
 soft         electrons  0.000000000000000E+000
 total        electrons   2305.71816497130     
 augmentation electrons   54.9353736378893     
 soft         electrons   1757.03479911246     
 total        electrons   1811.97017275035     
 augmentation electrons   38.2115263511975     
 soft         electrons   1757.03479911246     
 total        electrons   59.9277111865109     
 translations:           0           1           0
  34 F= -.36381373E+04 E0= -.36381373E+04  d E =-.384461E-02  mag=    60.0000
 curvature:  -1.30 expect dE=-0.123E-01 dE for cont linesearch -0.301E-04
 trial: gam= 0.80182 g(F)=  0.947E-02 g(S)=  0.000E+00 ort = 0.990E-03 (trialstep = 0.286E+00)
 search vector abs. value=  0.382E-01
 bond charge predicted
       N       E                     dE             d eps       ncg     rms          rms(c)
DAV:   1    -0.360022903258E+04   -0.17821E-02   -0.19338E-01  5632   0.455E-01    0.162E-01
DAV:   2    -0.360022978464E+04   -0.75206E-03   -0.79950E-03  6144   0.697E-02    0.814E-02
DAV:   3    -0.360022977840E+04    0.62422E-05   -0.20037E-04  6912   0.133E-02    0.500E-02
DAV:   4    -0.360022976525E+04    0.13152E-04   -0.29297E-05  6272   0.555E-03    0.309E-02
DAV:   5    -0.360022976274E+04    0.25021E-05   -0.16864E-05  6528   0.451E-03    0.816E-03
DAV:   6    -0.360022976317E+04   -0.43177E-06   -0.33080E-06  5760   0.172E-03
 augmentation electrons   1811.96415794141     
 soft         electrons  0.000000000000000E+000
 total        electrons   1811.96415794141     
 augmentation electrons -7.241541992616901E-002
 soft         electrons  0.000000000000000E+000
 total        electrons -7.241541992616901E-002
 augmentation electrons   2356.70308135735     
 soft         electrons  0.000000000000000E+000
 total        electrons   2356.70308135735     
 augmentation electrons   2299.18592148535     
 soft         electrons  0.000000000000000E+000
 total        electrons   2299.18592148535     
 augmentation electrons   54.9292183657696     
 soft         electrons   1757.03489778958     
 total        electrons   1811.96411615534     
 augmentation electrons   38.2110835524011     
 soft         electrons   1757.03489778958     
 total        electrons   59.9275587343278     
 translations:           0           1           0
  35 F= -.36381397E+04 E0= -.36381397E+04  d E =-.238503E-02  mag=    60.0000
 trial-energy change:   -0.002385  1 .order   -0.002207   -0.002939   -0.001475
 step:   0.4246(harm=  0.5746)  dis= 0.00295  next Energy= -3638.140081 (dE=-0.276E-02)
 bond charge predicted
       N       E                     dE             d eps       ncg     rms          rms(c)
DAV:   1    -0.360023023318E+04   -0.47044E-03   -0.45359E-02  5632   0.220E-01    0.789E-02
DAV:   2    -0.360023041101E+04   -0.17783E-03   -0.18825E-03  6144   0.339E-02    0.395E-02
DAV:   3    -0.360023040931E+04    0.17003E-05   -0.46717E-05  6912   0.647E-03    0.242E-02
DAV:   4    -0.360023040617E+04    0.31407E-05   -0.71909E-06  6400   0.275E-03    0.149E-02
DAV:   5    -0.360023040568E+04    0.49271E-06   -0.40209E-06  6272   0.219E-03
 augmentation electrons   1811.96072833677     
 soft         electrons  0.000000000000000E+000
 total        electrons   1811.96072833677     
 augmentation electrons -7.234886186109779E-002
 soft         electrons  0.000000000000000E+000
 total        electrons -7.234886186109779E-002
 augmentation electrons   2353.21971439406     
 soft         electrons  0.000000000000000E+000
 total        electrons   2353.21971439406     
 augmentation electrons   2295.70255452206     
 soft         electrons  0.000000000000000E+000
 total        electrons   2295.70255452206     
 augmentation electrons   54.9257552269912     
 soft         electrons   1757.03493169984     
 total        electrons   1811.96068692683     
 augmentation electrons   38.2110092030088     
 soft         electrons   1757.03493169984     
 total        electrons   59.9276253520449     
 translations:           0           1           0
  36 F= -.36381403E+04 E0= -.36381403E+04  d E =-.296188E-02  mag=    60.0000
 curvature:  -0.78 expect dE=-0.412E-02 dE for cont linesearch -0.836E-04
 ZBRENT: increasing intervall
 opt :   0.7013  next Energy= -3638.139975 (dE=-0.266E-02)
 bond charge predicted
       N       E                     dE             d eps       ncg     rms          rms(c)
DAV:   1    -0.360022992043E+04    0.48574E-03   -0.18090E-01  5632   0.441E-01    0.157E-01
DAV:   2    -0.360023062159E+04   -0.70116E-03   -0.74590E-03  6144   0.674E-02    0.785E-02
DAV:   3    -0.360023061589E+04    0.57040E-05   -0.18711E-04  6912   0.129E-02    0.482E-02
DAV:   4    -0.360023060370E+04    0.12186E-04   -0.27300E-05  6272   0.536E-03    0.298E-02
DAV:   5    -0.360023060142E+04    0.22867E-05   -0.15643E-05  6528   0.436E-03    0.789E-03
DAV:   6    -0.360023060183E+04   -0.41246E-06   -0.31033E-06  5760   0.167E-03
 augmentation electrons   1811.95254558962     
 soft         electrons  0.000000000000000E+000
 total        electrons   1811.95254558962     
 augmentation electrons -7.228232531594442E-002
 soft         electrons  0.000000000000000E+000
 total        electrons -7.228232531594442E-002
 augmentation electrons   2345.67831614925     
 soft         electrons  0.000000000000000E+000
 total        electrons   2345.67831614925     
 augmentation electrons   2288.16115627725     
 soft         electrons  0.000000000000000E+000
 total        electrons   2288.16115627725     
 augmentation electrons   54.9175085194293     
 soft         electrons   1757.03499640396     
 total        electrons   1811.95250492339     
 augmentation electrons   38.2108020709457     
 soft         electrons   1757.03499640396     
 total        electrons   59.9276920179246     
 translations:           0           1           0
  37 F= -.36381403E+04 E0= -.36381403E+04  d E =-.302764E-02  mag=    60.0000
 curvature:   2.85 expect dE= 0.474E-01 dE for cont linesearch  0.560E-03
 ZBRENT: bracketing found
 ZBRENT: interpolating
 opt :   0.5422  next Energy= -3638.140400 (dE=-0.308E-02)
 bond charge predicted
       N       E                     dE             d eps       ncg     rms          rms(c)
DAV:   1    -0.360023043120E+04    0.17022E-03   -0.59397E-02  5632   0.253E-01    0.892E-02
DAV:   2    -0.360023065868E+04   -0.22748E-03   -0.24458E-03  6144   0.386E-02    0.450E-02
DAV:   3    -0.360023065713E+04    0.15485E-05   -0.62529E-05  6912   0.740E-03    0.278E-02
DAV:   4    -0.360023065318E+04    0.39526E-05   -0.83348E-06  6272   0.299E-03    0.173E-02
DAV:   5    -0.360023065208E+04    0.10980E-05   -0.49743E-06  6400   0.257E-03    0.460E-03
DAV:   6    -0.360023065214E+04   -0.57160E-07   -0.11315E-06  4352   0.103E-03
 augmentation electrons   1811.95741637190     
 soft         electrons  0.000000000000000E+000
 total        electrons   1811.95741637190     
 augmentation electrons -7.229177389931690E-002
 soft         electrons  0.000000000000000E+000
 total        electrons -7.229177389931690E-002
 augmentation electrons   2350.10342420402     
 soft         electrons  0.000000000000000E+000
 total        electrons   2350.10342420402     
 augmentation electrons   2292.58626433202     
 soft         electrons  0.000000000000000E+000
 total        electrons   2292.58626433202     
 augmentation electrons   54.9224014909255     
 soft         electrons   1757.03497378922     
 total        electrons   1811.95737528014     
 augmentation electrons   38.2109443852500     
 soft         electrons   1757.03497378922     
 total        electrons   59.9276824933782     
 translations:           0           1           0
  38 F= -.36381405E+04 E0= -.36381405E+04  d E =-.314188E-02  mag=    60.0000
 curvature:  -0.61 expect dE=-0.533E-02 dE for cont linesearch -0.358E-06
 trial: gam= 1.06841 g(F)=  0.877E-02 g(S)=  0.000E+00 ort = 0.150E-03 (trialstep = 0.245E+00)
 search vector abs. value=  0.527E-01
 bond charge predicted
       N       E                     dE             d eps       ncg     rms          rms(c)
DAV:   1    -0.360023153226E+04   -0.88017E-03   -0.18491E-01  5504   0.467E-01    0.162E-01
DAV:   2    -0.360023231618E+04   -0.78393E-03   -0.81256E-03  6016   0.712E-02    0.808E-02
DAV:   3    -0.360023231791E+04   -0.17321E-05   -0.20284E-04  6784   0.134E-02    0.489E-02
DAV:   4    -0.360023230726E+04    0.10651E-04   -0.25232E-05  6528   0.525E-03    0.306E-02
DAV:   5    -0.360023230537E+04    0.18981E-05   -0.15762E-05  6272   0.458E-03    0.832E-03
DAV:   6    -0.360023230584E+04   -0.47052E-06   -0.33614E-06  5888   0.177E-03
 augmentation electrons   1811.94903179782     
 soft         electrons  0.000000000000000E+000
 total        electrons   1811.94903179782     
 augmentation electrons -7.182401527828663E-002
 soft         electrons  0.000000000000000E+000
 total        electrons -7.182401527828663E-002
 augmentation electrons   2349.99409712914     
 soft         electrons  0.000000000000000E+000
 total        electrons   2349.99409712914     
 augmentation electrons   2292.47693725714     
 soft         electrons  0.000000000000000E+000
 total        electrons   2292.47693725714     
 augmentation electrons   54.9143065741374     
 soft         electrons   1757.03468487716     
 total        electrons   1811.94899145129     
 augmentation electrons   38.2113183135818     
 soft         electrons   1757.03468487716     
 total        electrons   59.9281503605956     
 translations:           0           1           0
  39 F= -.36381418E+04 E0= -.36381418E+04  d E =-.137818E-02  mag=    60.0000
 trial-energy change:   -0.001378  1 .order   -0.001695   -0.002185   -0.001206
 step:   0.5457(harm=  0.5457)  dis= 0.00427  next Energy= -3638.142898 (dE=-0.244E-02)
 bond charge predicted
       N       E                     dE             d eps       ncg     rms          rms(c)
DAV:   1    -0.360023171272E+04    0.59264E-03   -0.28139E-01  5504   0.575E-01    0.201E-01
DAV:   2    -0.360023290875E+04   -0.11960E-02   -0.12389E-02  6016   0.880E-02    0.998E-02
DAV:   3    -0.360023290928E+04   -0.53723E-06   -0.30658E-04  6784   0.166E-02    0.602E-02
DAV:   4    -0.360023289237E+04    0.16914E-04   -0.40139E-05  6528   0.662E-03    0.376E-02
DAV:   5    -0.360023288943E+04    0.29359E-05   -0.24586E-05  6400   0.565E-03    0.102E-02
DAV:   6    -0.360023289016E+04   -0.72968E-06   -0.50206E-06  6272   0.213E-03
 augmentation electrons   1811.93718316435     
 soft         electrons  0.000000000000000E+000
 total        electrons   1811.93718316435     
 augmentation electrons -7.102010127593733E-002
 soft         electrons  0.000000000000000E+000
 total        electrons -7.102010127593733E-002
 augmentation electrons   2349.45730883621     
 soft         electrons  0.000000000000000E+000
 total        electrons   2349.45730883621     
 augmentation electrons   2291.94014896421     
 soft         electrons  0.000000000000000E+000
 total        electrons   2291.94014896421     
[...]
 soft         electrons  0.000000000000000E+000
 total        electrons   1997.10875716947     
 augmentation electrons   54.7079294673672     
 soft         electrons   1757.03216217954     
 total        electrons   1811.74009164691     
 augmentation electrons   38.2153100219197     
 soft         electrons   1757.03216217954     
 total        electrons   59.9275387443642     
 translations:           0           1           0
 114 F= -.36382197E+04 E0= -.36382197E+04  d E =-.136631E-02  mag=    60.0000
 trial-energy change:   -0.001366  1 .order   -0.001411   -0.002209   -0.000613
 step:   0.4481(harm=  0.4091)  dis= 0.00215  next Energy= -3638.219805 (dE=-0.152E-02)
 bond charge predicted
       N       E                     dE             d eps       ncg     rms          rms(c)
DAV:   1    -0.360029759690E+04    0.14701E-03   -0.82016E-02  5120   0.267E-01    0.763E-02
DAV:   2    -0.360029771369E+04   -0.11679E-03   -0.15641E-03  6272   0.344E-02    0.475E-02
DAV:   3    -0.360029770131E+04    0.12385E-04   -0.42126E-05  6784   0.680E-03    0.300E-02
DAV:   4    -0.360029769596E+04    0.53507E-05   -0.17449E-05  6528   0.448E-03    0.122E-02
DAV:   5    -0.360029769656E+04   -0.60325E-06   -0.46932E-06  6400   0.194E-03
 augmentation electrons   1811.73894034292     
 soft         electrons  0.000000000000000E+000
 total        electrons   1811.73894034292     
 augmentation electrons -7.246285603994355E-002
 soft         electrons  0.000000000000000E+000
 total        electrons -7.246285603994355E-002
 augmentation electrons   2054.36362530162     
 soft         electrons  0.000000000000000E+000
 total        electrons   2054.36362530162     
 augmentation electrons   1996.84646542962     
 soft         electrons  0.000000000000000E+000
 total        electrons   1996.84646542962     
 augmentation electrons   54.7066951864656     
 soft         electrons   1757.03218063802     
 total        electrons   1811.73887582449     
 augmentation electrons   38.2151586588832     
 soft         electrons   1757.03218063802     
 total        electrons   59.9275065316144     
 translations:           0           1           0
 115 F= -.36382198E+04 E0= -.36382198E+04  d E =-.147644E-02  mag=    60.0000
 curvature:  -1.59 expect dE=-0.763E-02 dE for cont linesearch -0.403E-05
 trial: gam= 0.76733 g(F)=  0.479E-02 g(S)=  0.000E+00 ort =-0.408E-03 (trialstep = 0.326E+00)
 search vector abs. value=  0.430E-01
 bond charge predicted
       N       E                     dE             d eps       ncg     rms          rms(c)
DAV:   1    -0.360029794907E+04   -0.25311E-03   -0.23736E-01  5120   0.479E-01    0.138E-01
DAV:   2    -0.360029834199E+04   -0.39292E-03   -0.49231E-03  6272   0.625E-02    0.824E-02
DAV:   3    -0.360029831272E+04    0.29277E-04   -0.13050E-04  6784   0.122E-02    0.521E-02
DAV:   4    -0.360029829753E+04    0.15187E-04   -0.45675E-05  6528   0.738E-03    0.228E-02
DAV:   5    -0.360029829885E+04   -0.13221E-05   -0.12998E-05  6784   0.330E-03    0.595E-03
DAV:   6    -0.360029829866E+04    0.18813E-06   -0.83093E-07  3712   0.117E-03
 augmentation electrons   1811.73787176950     
 soft         electrons  0.000000000000000E+000
 total        electrons   1811.73787176950     
 augmentation electrons -7.229233262036128E-002
 soft         electrons  0.000000000000000E+000
 total        electrons -7.229233262036128E-002
 augmentation electrons   2056.90619288793     
 soft         electrons  0.000000000000000E+000
 total        electrons   2056.90619288793     
 augmentation electrons   1999.38903301593     
 soft         electrons  0.000000000000000E+000
 total        electrons   1999.38903301593     
 augmentation electrons   54.7059789767853     
 soft         electrons   1757.03182794221     
 total        electrons   1811.73780691900     
 augmentation electrons   38.2152580316388     
 soft         electrons   1757.03182794221     
 total        electrons   59.9276770784660     
 translations:           0           1           0
 116 F= -.36382205E+04 E0= -.36382205E+04  d E =-.781292E-03  mag=    60.0000
 trial-energy change:   -0.000781  1 .order   -0.000967   -0.001461   -0.000474
 step:   0.4826(harm=  0.4826)  dis= 0.00189  next Energy= -3638.220843 (dE=-0.108E-02)
 bond charge predicted
       N       E                     dE             d eps       ncg     rms          rms(c)
DAV:   1    -0.360029818230E+04    0.11655E-03   -0.54787E-02  5120   0.230E-01    0.665E-02
DAV:   2    -0.360029827369E+04   -0.91392E-04   -0.11460E-03  6272   0.301E-02    0.397E-02
DAV:   3    -0.360029826667E+04    0.70178E-05   -0.30469E-05  6784   0.592E-03    0.251E-02
DAV:   4    -0.360029826316E+04    0.35094E-05   -0.11279E-05  6528   0.367E-03    0.107E-02
DAV:   5    -0.360029826353E+04   -0.36409E-06   -0.30302E-06  5632   0.161E-03
 augmentation electrons   1811.73741094304     
 soft         electrons  0.000000000000000E+000
 total        electrons   1811.73741094304     
 augmentation electrons -7.223326614690981E-002
 soft         electrons  0.000000000000000E+000
 total        electrons -7.223326614690981E-002
 augmentation electrons   2058.11660828444     
 soft         electrons  0.000000000000000E+000
 total        electrons   2058.11660828444     
 augmentation electrons   2000.59944841244     
 soft         electrons  0.000000000000000E+000
 total        electrons   2000.59944841244     
 augmentation electrons   54.7056989036235     
 soft         electrons   1757.03164703575     
 total        electrons   1811.73734593937     
 augmentation electrons   38.2152833611602     
 soft         electrons   1757.03164703575     
 total        electrons   59.9277361572489     
 translations:           0           1           0
 117 F= -.36382206E+04 E0= -.36382206E+04  d E =-.830264E-03  mag=    60.0000
 curvature:  -2.31 expect dE=-0.843E-02 dE for cont linesearch -0.179E-05
 trial: gam= 0.59271 g(F)=  0.364E-02 g(S)=  0.000E+00 ort = 0.182E-03 (trialstep = 0.357E+00)
 search vector abs. value=  0.190E-01
 bond charge predicted
       N       E                     dE             d eps       ncg     rms          rms(c)
DAV:   1    -0.360029884301E+04   -0.57985E-03   -0.13830E-01  5120   0.385E-01    0.111E-01
DAV:   2    -0.360029911535E+04   -0.27234E-03   -0.32921E-03  6144   0.518E-02    0.648E-02
DAV:   3    -0.360029909988E+04    0.15469E-04   -0.10694E-04  6912   0.106E-02    0.407E-02
DAV:   4    -0.360029908949E+04    0.10388E-04   -0.27470E-05  6528   0.583E-03    0.185E-02
DAV:   5    -0.360029908966E+04   -0.17390E-06   -0.85425E-06  6784   0.278E-03
 augmentation electrons   1811.73732667886     
 soft         electrons  0.000000000000000E+000
 total        electrons   1811.73732667886     
 augmentation electrons -7.195278255643162E-002
 soft         electrons  0.000000000000000E+000
 total        electrons -7.195278255643162E-002
 augmentation electrons   2062.03323739745     
 soft         electrons  0.000000000000000E+000
 total        electrons   2062.03323739745     
 augmentation electrons   2004.51607752545     
 soft         electrons  0.000000000000000E+000
 total        electrons   2004.51607752545     
 augmentation electrons   54.7060507568915     
 soft         electrons   1757.03121043151     
 total        electrons   1811.73726118840     
 augmentation electrons   38.2156453685891     
 soft         electrons   1757.03121043151     
 total        electrons   59.9280166643639     
 translations:           0           1           0
 118 F= -.36382216E+04 E0= -.36382216E+04  d E =-.100638E-02  mag=    60.0000
 trial-energy change:   -0.001006  1 .order   -0.000864   -0.001340   -0.000388
 step:   0.4278(harm=  0.5033)  dis= 0.00109  next Energy= -3638.221639 (dE=-0.105E-02)
 bond charge predicted
       N       E                     dE             d eps       ncg     rms          rms(c)
DAV:   1    -0.360029912796E+04   -0.38470E-04   -0.54641E-03  5376   0.763E-02    0.226E-02
DAV:   2    -0.360029913873E+04   -0.10765E-04   -0.13564E-04  6144   0.106E-02    0.132E-02
DAV:   3    -0.360029913778E+04    0.94186E-06   -0.46311E-06  6912   0.230E-03
 augmentation electrons   1811.73729945133     
 soft         electrons  0.000000000000000E+000
 total        electrons   1811.73729945133     
 augmentation electrons -7.190641625522831E-002
 soft         electrons  0.000000000000000E+000
 total        electrons -7.190641625522831E-002
 augmentation electrons   2062.81361474309     
 soft         electrons  0.000000000000000E+000
 total        electrons   2062.81361474309     
 augmentation electrons   2005.29645487109     
 soft         electrons  0.000000000000000E+000
 total        electrons   2005.29645487109     
 augmentation electrons   54.7061690093971     
 soft         electrons   1757.03106485604     
 total        electrons   1811.73723386544     
 augmentation electrons   38.2157144452869     
 soft         electrons   1757.03106485604     
 total        electrons   59.9280630355452     
 translations:           0           1           0
 119 F= -.36382217E+04 E0= -.36382217E+04  d E =-.108065E-02  mag=    60.0000
 curvature:  -0.93 expect dE=-0.264E-02 dE for cont linesearch -0.158E-04
 ZBRENT: increasing intervall
 opt :   0.5687  next Energy= -3638.221680 (dE=-0.109E-02)
 bond charge predicted
       N       E                     dE             d eps       ncg     rms          rms(c)
DAV:   1    -0.360029908214E+04    0.56583E-04   -0.21126E-02  5120   0.151E-01    0.426E-02
DAV:   2    -0.360029912382E+04   -0.41680E-04   -0.49057E-04  6144   0.199E-02    0.248E-02
DAV:   3    -0.360029912228E+04    0.15434E-05   -0.16314E-05  6912   0.404E-03    0.157E-02
DAV:   4    -0.360029912094E+04    0.13405E-05   -0.36292E-06  6528   0.215E-03    0.657E-03
DAV:   5    -0.360029912095E+04   -0.16036E-07   -0.10265E-06  3968   0.101E-03
 augmentation electrons   1811.73728123260     
 soft         electrons  0.000000000000000E+000
 total        electrons   1811.73728123260     
 augmentation electrons -7.182179270673500E-002
 soft         electrons  0.000000000000000E+000
 total        electrons -7.182179270673500E-002
 augmentation electrons   2064.38194998562     
 soft         electrons  0.000000000000000E+000
 total        electrons   2064.38194998562     
 augmentation electrons   2006.86479011362     
 soft         electrons  0.000000000000000E+000
 total        electrons   2006.86479011362     
 augmentation electrons   54.7063043737319     
 soft         electrons   1757.03091108322     
 total        electrons   1811.73721545695     
 augmentation electrons   38.2158288418831     
 soft         electrons   1757.03091108322     
 total        electrons   59.9281476691191     
 translations:           0           1           0
 120 F= -.36382217E+04 E0= -.36382217E+04  d E =-.113749E-02  mag=    60.0000
 curvature:  -0.38 expect dE=-0.187E-02 dE for cont linesearch -0.475E-05
 trial: gam= 1.55760 g(F)=  0.495E-02 g(S)=  0.000E+00 ort =-0.488E-03 (trialstep = 0.153E+00)
 search vector abs. value=  0.494E-01
 bond charge predicted
       N       E                     dE             d eps       ncg     rms          rms(c)
DAV:   1    -0.360029961733E+04   -0.49639E-03   -0.62609E-02  5120   0.263E-01    0.769E-02
DAV:   2    -0.360029974977E+04   -0.13244E-03   -0.15018E-03  6144   0.344E-02    0.439E-02
DAV:   3    -0.360029974461E+04    0.51600E-05   -0.43729E-05  6912   0.683E-03    0.274E-02
DAV:   4    -0.360029974010E+04    0.45085E-05   -0.11468E-05  6528   0.383E-03    0.127E-02
DAV:   5    -0.360029974011E+04   -0.76543E-08   -0.37614E-06  6528   0.188E-03
 augmentation electrons   1811.73763297911     
 soft         electrons  0.000000000000000E+000
 total        electrons   1811.73763297911     
 augmentation electrons -7.166771491168228E-002
 soft         electrons  0.000000000000000E+000
 total        electrons -7.166771491168228E-002
 augmentation electrons   2067.61060177534     
 soft         electrons  0.000000000000000E+000
 total        electrons   2067.61060177534     
 augmentation electrons   2010.09344190334     
 soft         electrons  0.000000000000000E+000
 total        electrons   2010.09344190334     
 augmentation electrons   54.7069431772734     
 soft         electrons   1757.03062351360     
 total        electrons   1811.73756669087     
 augmentation electrons   38.2160842517929     
 soft         electrons   1757.03062351360     
 total        electrons   59.9283017595873     
 translations:           0           1           0
 121 F= -.36382224E+04 E0= -.36382224E+04  d E =-.683978E-03  mag=    60.0000
 trial-energy change:   -0.000684  1 .order   -0.000546   -0.000643   -0.000449
 step:   0.5092(harm=  0.5092)  dis= 0.00212  next Energy= -3638.222798 (dE=-0.107E-02)
 bond charge predicted
       N       E                     dE             d eps       ncg     rms          rms(c)
DAV:   1    -0.360029974947E+04   -0.93713E-05   -0.33757E-01  5120   0.610E-01    0.179E-01
DAV:   2    -0.360030046222E+04   -0.71275E-03   -0.80952E-03  6144   0.798E-02    0.102E-01
DAV:   3    -0.360030043474E+04    0.27480E-04   -0.23661E-04  6912   0.159E-02    0.637E-02
DAV:   4    -0.360030041095E+04    0.23788E-04   -0.61618E-05  6528   0.888E-03    0.297E-02
DAV:   5    -0.360030041140E+04   -0.44909E-06   -0.20318E-05  6912   0.438E-03    0.801E-03
DAV:   6    -0.360030041113E+04    0.26758E-06   -0.17390E-06  5120   0.163E-03
 augmentation electrons   1811.73876374753     
 soft         electrons  0.000000000000000E+000
 total        electrons   1811.73876374753     
 augmentation electrons -7.119588447132544E-002
 soft         electrons  0.000000000000000E+000
 total        electrons -7.119588447132544E-002
 augmentation electrons   2075.21787432958     
 soft         electrons  0.000000000000000E+000
 total        electrons   2075.21787432958     
 augmentation electrons   2017.70071445758     
 soft         electrons  0.000000000000000E+000
 total        electrons   2017.70071445758     
 augmentation electrons   54.7087643437637     
 soft         electrons   1757.02993193909     
 total        electrons   1811.73869628286     
 augmentation electrons   38.2167925954749     
 soft         electrons   1757.02993193909     
 total        electrons   59.9287736237080     
 translations:           0           1           0
 122 F= -.36382232E+04 E0= -.36382232E+04  d E =-.149926E-02  mag=    60.0000
 curvature:  -3.00 expect dE=-0.174E-01 dE for cont linesearch -0.174E-06
 trial: gam= 0.64829 g(F)=  0.579E-02 g(S)=  0.000E+00 ort =-0.535E-04 (trialstep = 0.224E+00)
 search vector abs. value=  0.265E-01
 bond charge predicted
       N       E                     dE             d eps       ncg     rms          rms(c)
DAV:   1    -0.360030103947E+04   -0.62807E-03   -0.75647E-02  5120   0.279E-01    0.801E-02
DAV:   2    -0.360030117880E+04   -0.13933E-03   -0.17746E-03  6272   0.383E-02    0.483E-02
DAV:   3    -0.360030116705E+04    0.11746E-04   -0.56464E-05  6656   0.790E-03    0.299E-02
DAV:   4    -0.360030116126E+04    0.57912E-05   -0.19367E-05  6528   0.478E-03    0.117E-02
DAV:   5    -0.360030116156E+04   -0.29526E-06   -0.44656E-06  6016   0.198E-03
 augmentation electrons   1811.73901588408     
 soft         electrons  0.000000000000000E+000
 total        electrons   1811.73901588408     
 augmentation electrons -7.102287366022747E-002
 soft         electrons  0.000000000000000E+000
 total        electrons -7.102287366022747E-002
 augmentation electrons   2078.02498673073     
 soft         electrons  0.000000000000000E+000
 total        electrons   2078.02498673073     
 augmentation electrons   2020.50782685873     
 soft         electrons  0.000000000000000E+000
 total        electrons   2020.50782685873     
 augmentation electrons   54.7091936455671     
 soft         electrons   1757.02975425112     
 total        electrons   1811.73894789669     
 augmentation electrons   38.2170844550087     
 soft         electrons   1757.02975425112     
 total        electrons   59.9289466226796     
 translations:           0           1           0
 123 F= -.36382240E+04 E0= -.36382240E+04  d E =-.815452E-03  mag=    60.0000
 trial-energy change:   -0.000815  1 .order   -0.000866   -0.001292   -0.000440
 step:   0.3405(harm=  0.3405)  dis= 0.00095  next Energy= -3638.224210 (dE=-0.980E-03)
 bond charge predicted
       N       E                     dE             d eps       ncg     rms          rms(c)
DAV:   1    -0.360030118317E+04   -0.21903E-04   -0.20274E-02  5120   0.145E-01    0.417E-02
DAV:   2    -0.360030122057E+04   -0.37406E-04   -0.48096E-04  6144   0.200E-02    0.251E-02
DAV:   3    -0.360030121725E+04    0.33221E-05   -0.15919E-05  6784   0.421E-03    0.155E-02
DAV:   4    -0.360030121574E+04    0.15109E-05   -0.54568E-06  6528   0.252E-03    0.626E-03
DAV:   5    -0.360030121581E+04   -0.66240E-07   -0.11457E-06  3712   0.104E-03
 augmentation electrons   1811.73914602636     
 soft         electrons  0.000000000000000E+000
 total        electrons   1811.73914602636     
 augmentation electrons -7.093558429515645E-002
 soft         electrons  0.000000000000000E+000
 total        electrons -7.093558429515645E-002
 augmentation electrons   2079.45031365263     
 soft         electrons  0.000000000000000E+000
 total        electrons   2079.45031365263     
 augmentation electrons   2021.93315378063     
 soft         electrons  0.000000000000000E+000
 total        electrons   2021.93315378063     
 augmentation electrons   54.7093960802312     
 soft         electrons   1757.02968168877     
 total        electrons   1811.73907776900     
 augmentation electrons   38.2172317442034     
 soft         electrons   1757.02968168877     
 total        electrons   59.9290339063031     
 translations:           0           1           0
 124 F= -.36382241E+04 E0= -.36382241E+04  d E =-.904257E-03  mag=    60.0000
 curvature:  -0.78 expect dE=-0.199E-02 dE for cont linesearch -0.252E-06
 trial: gam= 0.42081 g(F)=  0.254E-02 g(S)=  0.000E+00 ort = 0.922E-04 (trialstep = 0.248E+00)
 search vector abs. value=  0.731E-02
 bond charge predicted
       N       E                     dE             d eps       ncg     rms          rms(c)
DAV:   1    -0.360030138304E+04   -0.16730E-03   -0.26376E-02  5120   0.167E-01    0.473E-02
DAV:   2    -0.360030143899E+04   -0.55949E-04   -0.67256E-04  6528   0.237E-02    0.281E-02
DAV:   3    -0.360030143490E+04    0.40916E-05   -0.19664E-05  6784   0.488E-03    0.177E-02
DAV:   4    -0.360030143330E+04    0.15976E-05   -0.67622E-06  6656   0.276E-03    0.897E-03
DAV:   5    -0.360030143340E+04   -0.99753E-07   -0.14675E-06  4480   0.125E-03
 augmentation electrons   1811.73873163733     
 soft         electrons  0.000000000000000E+000
 total        electrons   1811.73873163733     
 augmentation electrons -7.091104229490917E-002
 soft         electrons  0.000000000000000E+000
 total        electrons -7.091104229490917E-002
 augmentation electrons   2080.23461292941     
 soft         electrons  0.000000000000000E+000
 total        electrons   2080.23461292941     
 augmentation electrons   2022.71745305741     
 soft         electrons  0.000000000000000E+000
 total        electrons   2022.71745305741     
 augmentation electrons   54.7088823305982     
 soft         electrons   1757.02978084727     
 total        electrons   1811.73866317787     
 augmentation electrons   38.2173159560360     
 soft         electrons   1757.02978084727     
 total        electrons   59.9290584054257     
 translations:           0           1           0
 125 F= -.36382245E+04 E0= -.36382245E+04  d E =-.348262E-03  mag=    60.0000
 trial-energy change:   -0.000348  1 .order   -0.000491   -0.000639   -0.000343
 step:   0.5350(harm=  0.5350)  dis= 0.00080  next Energy= -3638.224824 (dE=-0.690E-03)
 reached required accuracy - stopping structural energy minimisation
 writing wavefunctions
