 ----------------------------------------------------
    OOO  PPPP  EEEEE N   N M   M PPPP
   O   O P   P E     NN  N MM MM P   P
   O   O PPPP  EEEEE N N N M M M PPPP   -- VERSION
   O   O P     E     N  NN M   M P
    OOO  P     EEEEE N   N M   M P
 ----------------------------------------------------
 running  512 mpi-ranks, with    1 threads/rank
 distrk:  each k-point on  512 cores,    1 groups
 distr:  one band on    4 cores,  128 groups
 vasp.6.3.2 27Jun22 (build Nov 12 2024 19:13:04) complex                        
  
 POSCAR found type information on POSCAR MnBrN C H 
 POSCAR found :  5 types and     636 ions
 scaLAPACK will be used
 LDA part: xc-table for Pade appr. of Perdew
 POSCAR, INCAR and KPOINTS ok, starting setup
 FFT: planning ... GRIDC
 FFT: planning ... GRID_SOFT
 FFT: planning ... GRID
 WAVECAR not read
 entering main loop
       N       E                     dE             d eps       ncg     rms          rms(c)
DAV:   1     0.988276860671E+04    0.98828E+04   -0.80688E+05  5376   0.120E+03
DAV:   2    -0.260343625648E+04   -0.12486E+05   -0.12045E+05  6272   0.260E+02
DAV:   3    -0.385323653436E+04   -0.12498E+04   -0.12385E+04  6400   0.875E+01
DAV:   4    -0.388646908225E+04   -0.33233E+02   -0.33046E+02  6656   0.162E+01
DAV:   5    -0.388749703179E+04   -0.10279E+01   -0.10268E+01  6656   0.271E+00    0.139E+02
DAV:   6    -0.406151769999E+04   -0.17402E+03   -0.33298E+03  6400   0.386E+01    0.300E+02
DAV:   7    -0.365400260855E+04    0.40752E+03   -0.59974E+02  6400   0.286E+01    0.120E+02
DAV:   8    -0.362235367626E+04    0.31649E+02   -0.46984E+02  6528   0.329E+01    0.102E+02
DAV:   9    -0.371818189736E+04   -0.95828E+02   -0.39410E+02  7168   0.178E+01    0.102E+02
DAV:  10    -0.357448307977E+04    0.14370E+03   -0.75309E+01  5760   0.939E+00    0.618E+01
DAV:  11    -0.360772429289E+04   -0.33241E+02   -0.37026E+02  6784   0.651E+00    0.788E+01
DAV:  12    -0.360873545709E+04   -0.10112E+01   -0.35187E+02  6144   0.792E+00    0.770E+01
DAV:  13    -0.359149675028E+04    0.17239E+02   -0.18859E+02  6272   0.634E+00    0.659E+01
DAV:  14    -0.358788669726E+04    0.36101E+01   -0.18152E+02  5888   0.448E+00    0.542E+01
DAV:  15    -0.360602318431E+04   -0.18136E+02   -0.36797E+02  6400   0.480E+00    0.599E+01
DAV:  16    -0.359356401599E+04    0.12459E+02   -0.80061E+01  6016   0.466E+00    0.472E+01
DAV:  17    -0.359590501700E+04   -0.23410E+01   -0.12903E+02  6400   0.440E+00    0.497E+01
DAV:  18    -0.359683173320E+04   -0.92672E+00   -0.70880E+01  6272   0.294E+00    0.624E+01
DAV:  19    -0.359443216577E+04    0.23996E+01   -0.52710E+01  5888   0.231E+00    0.395E+01
DAV:  20    -0.359333782525E+04    0.10943E+01   -0.34557E+00  6016   0.149E+00    0.313E+01
DAV:  21    -0.359324337665E+04    0.94449E-01   -0.15791E-01  5760   0.365E-01    0.326E+01
DAV:  22    -0.359438730142E+04   -0.11439E+01   -0.33176E+00  5760   0.796E-01    0.274E+01
DAV:  23    -0.359449140714E+04   -0.10411E+00   -0.91536E-02  5760   0.288E-01    0.279E+01
DAV:  24    -0.359585050885E+04   -0.13591E+01   -0.33154E-01  6400   0.744E-01    0.257E+01
DAV:  25    -0.359816752851E+04   -0.23170E+01   -0.92605E+00  6400   0.175E+00    0.302E+01
DAV:  26    -0.359850296928E+04   -0.33544E+00   -0.95207E-01  6016   0.150E+00    0.277E+01
DAV:  27    -0.359785281312E+04    0.65016E+00   -0.16102E+00  6144   0.219E+00    0.259E+01
DAV:  28    -0.359503309122E+04    0.28197E+01   -0.13750E+00  6272   0.127E+00    0.246E+01
DAV:  29    -0.359179671376E+04    0.32364E+01   -0.58820E+00  6144   0.126E+00    0.176E+01
DAV:  30    -0.359414407452E+04   -0.23474E+01   -0.76392E-01  5888   0.836E-01    0.158E+01
DAV:  31    -0.359527991026E+04   -0.11358E+01   -0.26663E-01  6656   0.673E-01    0.157E+01
DAV:  32    -0.359613755312E+04   -0.85764E+00   -0.45871E-01  6528   0.913E-01    0.148E+01
DAV:  33    -0.359841987695E+04   -0.22823E+01   -0.53777E+00  6528   0.132E+00    0.164E+01
DAV:  34    -0.359867493132E+04   -0.25505E+00   -0.33592E-01  6016   0.562E-01    0.159E+01
DAV:  35    -0.359924030743E+04   -0.56538E+00   -0.15908E-01  6272   0.445E-01    0.149E+01
DAV:  36    -0.359942902391E+04   -0.18872E+00   -0.29278E-01  6400   0.699E-01    0.135E+01
DAV:  37    -0.359983998561E+04   -0.41096E+00   -0.35797E-01  6144   0.814E-01    0.121E+01
DAV:  38    -0.359973430655E+04    0.10568E+00   -0.65016E-01  6144   0.107E+00    0.104E+01
DAV:  39    -0.359969033509E+04    0.43971E-01   -0.41299E+00  6528   0.837E-01    0.100E+01
DAV:  40    -0.359981080084E+04   -0.12047E+00   -0.15470E-01  5760   0.521E-01    0.978E+00
DAV:  41    -0.359989660318E+04   -0.85802E-01   -0.26766E-02  6400   0.184E-01    0.958E+00
DAV:  42    -0.360032041742E+04   -0.42381E+00   -0.93819E-02  6784   0.436E-01    0.873E+00
DAV:  43    -0.360054776399E+04   -0.22735E+00   -0.73495E-02  6656   0.394E-01    0.839E+00
DAV:  44    -0.360046110935E+04    0.86655E-01   -0.23068E-02  6400   0.200E-01    0.844E+00
DAV:  45    -0.360043262290E+04    0.28486E-01   -0.24938E-03  7040   0.498E-02    0.845E+00
DAV:  46    -0.360045275960E+04   -0.20137E-01   -0.13819E-03  6656   0.468E-02    0.847E+00
DAV:  47    -0.360045144245E+04    0.13171E-02   -0.13517E-04  6272   0.165E-02    0.845E+00
DAV:  48    -0.360043351645E+04    0.17926E-01   -0.10016E-03  6656   0.561E-02    0.856E+00
DAV:  49    -0.360064840203E+04   -0.21489E+00   -0.15781E-02  6784   0.304E-01    0.787E+00
DAV:  50    -0.360093413351E+04   -0.28573E+00   -0.29684E-02  6400   0.325E-01    0.714E+00
DAV:  51    -0.360169218918E+04   -0.75806E+00   -0.49654E-01  6528   0.113E+00    0.568E+00
DAV:  52    -0.360187741140E+04   -0.18522E+00   -0.23621E-01  6272   0.639E-01    0.815E+00
DAV:  53    -0.360193142916E+04   -0.54018E-01   -0.83558E-02  5888   0.209E-01    0.125E+01
DAV:  54    -0.360193490194E+04   -0.34728E-02   -0.18288E-01  5760   0.268E-01    0.118E+01
DAV:  55    -0.360195537569E+04   -0.20474E-01   -0.29541E-02  5632   0.104E-01    0.118E+01
DAV:  56    -0.360238934130E+04   -0.43397E+00   -0.17558E-01  6528   0.561E-01    0.128E+01
DAV:  57    -0.360236658662E+04    0.22755E-01   -0.26927E-02  5760   0.133E-01    0.128E+01
DAV:  58    -0.360238409907E+04   -0.17512E-01   -0.74340E-02  6656   0.678E-02    0.129E+01
DAV:  59    -0.360241130184E+04   -0.27203E-01   -0.25200E-02  5888   0.942E-02    0.129E+01
DAV:  60    -0.360241491716E+04   -0.36153E-02   -0.30006E-03  5632   0.300E-02    0.129E+01
DAV:  61    -0.360216804402E+04    0.24687E+00   -0.80566E-01  6272   0.104E+00    0.135E+01
DAV:  62    -0.360252129316E+04   -0.35325E+00   -0.14411E+00  6272   0.397E-01    0.141E+01
DAV:  63    -0.360237466778E+04    0.14663E+00   -0.28151E-01  5632   0.228E-01    0.137E+01
DAV:  64    -0.360232501081E+04    0.49657E-01   -0.11100E-01  6016   0.115E-01    0.134E+01
DAV:  65    -0.360232803782E+04   -0.30270E-02   -0.94256E-02  6016   0.762E-02    0.134E+01
DAV:  66    -0.360192692111E+04    0.40112E+00   -0.39865E-01  6272   0.450E-01    0.121E+01
DAV:  67    -0.360192515865E+04    0.17625E-02   -0.23427E-02  5632   0.108E-01    0.119E+01
DAV:  68    -0.360173251537E+04    0.19264E+00   -0.16744E-01  6400   0.387E-01    0.364E+00
DAV:  69    -0.360173948220E+04   -0.69668E-02   -0.19904E-01  6144   0.468E-01    0.265E+00
DAV:  70    -0.360170701419E+04    0.32468E-01   -0.72417E-02  6656   0.471E-01    0.225E+00
DAV:  71    -0.360173667774E+04   -0.29664E-01   -0.24710E-01  6272   0.728E-01    0.241E+00
DAV:  72    -0.360171196945E+04    0.24708E-01   -0.61474E-02  6528   0.448E-01    0.196E+00
DAV:  73    -0.360170059655E+04    0.11373E-01   -0.24614E-02  6528   0.225E-01    0.187E+00
DAV:  74    -0.360169359679E+04    0.69998E-02   -0.25186E-02  6528   0.232E-01    0.188E+00
DAV:  75    -0.360169507631E+04   -0.14795E-02   -0.27857E-02  6912   0.170E-01    0.201E+00
DAV:  76    -0.360171167287E+04   -0.16597E-01   -0.32865E-02  6528   0.188E-01    0.218E+00
DAV:  77    -0.360169388059E+04    0.17792E-01   -0.18346E-02  6912   0.130E-01    0.231E+00
DAV:  78    -0.360168336293E+04    0.10518E-01   -0.83720E-03  6656   0.699E-02    0.243E+00
DAV:  79    -0.360168073913E+04    0.26238E-02   -0.12698E-03  5888   0.323E-02    0.247E+00
DAV:  80    -0.360167888585E+04    0.18533E-02   -0.27747E-04  6528   0.234E-02    0.249E+00
DAV:  81    -0.360164022106E+04    0.38665E-01   -0.14564E-02  6528   0.117E-01    0.272E+00
DAV:  82    -0.360164175679E+04   -0.15357E-02   -0.14376E-03  5888   0.350E-02    0.270E+00
DAV:  83    -0.360164409244E+04   -0.23357E-02   -0.48248E-04  6784   0.210E-02    0.271E+00
DAV:  84    -0.360165501884E+04   -0.10926E-01   -0.12712E-03  6912   0.457E-02    0.268E+00
DAV:  85    -0.360167506551E+04   -0.20047E-01   -0.40535E-03  6400   0.806E-02    0.257E+00
DAV:  86    -0.360170064136E+04   -0.25576E-01   -0.29673E-02  6272   0.148E-01    0.240E+00
DAV:  87    -0.360170927006E+04   -0.86287E-02   -0.43407E-02  7040   0.147E-01    0.237E+00
DAV:  88    -0.360171879999E+04   -0.95299E-02   -0.19980E-02  6656   0.953E-02    0.239E+00
DAV:  89    -0.360172970195E+04   -0.10902E-01   -0.22053E-02  7040   0.108E-01    0.243E+00
DAV:  90    -0.360175346987E+04   -0.23768E-01   -0.52455E-02  7040   0.222E-01    0.260E+00
DAV:  91    -0.360178711895E+04   -0.33649E-01   -0.19500E-02  6656   0.211E-01    0.280E+00
DAV:  92    -0.360180703712E+04   -0.19918E-01   -0.16195E-02  7040   0.156E-01    0.294E+00
DAV:  93    -0.360180865067E+04   -0.16136E-02   -0.39712E-03  5632   0.491E-02    0.295E+00
DAV:  94    -0.360180861733E+04    0.33340E-04   -0.69434E-05  6400   0.717E-03    0.295E+00
DAV:  95    -0.360180825045E+04    0.36688E-03   -0.66149E-06  6144   0.356E-03    0.295E+00
DAV:  96    -0.360170968040E+04    0.98570E-01   -0.99891E-02  6528   0.487E-01    0.271E+00
DAV:  97    -0.360171451277E+04   -0.48324E-02   -0.17508E-02  5632   0.993E-02    0.264E+00
DAV:  98    -0.360171835193E+04   -0.38392E-02   -0.32747E-03  6400   0.435E-02    0.266E+00
DAV:  99    -0.360171768839E+04    0.66354E-03   -0.55229E-04  7040   0.148E-02    0.266E+00
DAV: 100    -0.360171877683E+04   -0.10884E-02   -0.32321E-03  6784   0.252E-02    0.267E+00
DAV: 101    -0.360160048066E+04    0.11830E+00   -0.97631E-01  6912   0.795E-01    0.225E+00
DAV: 102    -0.360169660545E+04   -0.96125E-01   -0.13213E-01  6272   0.272E-01    0.218E+00
DAV: 103    -0.360171604238E+04   -0.19437E-01   -0.66368E-02  6912   0.202E-01    0.230E+00
DAV: 104    -0.360173588621E+04   -0.19844E-01   -0.66171E-02  7040   0.203E-01    0.248E+00
DAV: 105    -0.360174924506E+04   -0.13359E-01   -0.29743E-02  6528   0.131E-01    0.257E+00
DAV: 106    -0.360163332835E+04    0.11592E+00   -0.63182E-01  7040   0.769E-01    0.186E+00
DAV: 107    -0.360168795037E+04   -0.54622E-01   -0.63863E-02  6272   0.168E-01    0.189E+00
DAV: 108    -0.360169536108E+04   -0.74107E-02   -0.48223E-02  6656   0.102E-01    0.195E+00
DAV: 109    -0.360170486701E+04   -0.95059E-02   -0.41736E-02  7168   0.953E-02    0.203E+00
DAV: 110    -0.360171700590E+04   -0.12139E-01   -0.58586E-02  6912   0.117E-01    0.211E+00
DAV: 111    -0.360156012053E+04    0.15689E+00   -0.91919E-01  7040   0.148E+00    0.117E+00
DAV: 112    -0.360162790765E+04   -0.67787E-01   -0.21005E-01  6144   0.269E-01    0.119E+00
DAV: 113    -0.360162995040E+04   -0.20427E-02   -0.19405E-01  6656   0.188E-01    0.143E+00
DAV: 114    -0.360164168632E+04   -0.11736E-01   -0.16496E-01  7168   0.162E-01    0.173E+00
DAV: 115    -0.360166435482E+04   -0.22668E-01   -0.13686E-02  5632   0.850E-02    0.178E+00
DAV: 116    -0.360166806719E+04   -0.37124E-02   -0.11839E-03  5760   0.352E-02    0.179E+00
DAV: 117    -0.360166892044E+04   -0.85325E-03   -0.54769E-04  5888   0.284E-02    0.179E+00
DAV: 118    -0.360166809989E+04    0.82056E-03   -0.68950E-04  6144   0.291E-02    0.175E+00
DAV: 119    -0.360166512557E+04    0.29743E-02   -0.20878E-03  6272   0.474E-02    0.166E+00
DAV: 120    -0.360165928598E+04    0.58396E-02   -0.74018E-03  6144   0.900E-02    0.151E+00
DAV: 121    -0.360165594413E+04    0.33418E-02   -0.52761E-03  6016   0.641E-02    0.140E+00
DAV: 122    -0.360165515862E+04    0.78551E-03   -0.31286E-03  6528   0.355E-02    0.131E+00
DAV: 123    -0.360165418842E+04    0.97020E-03   -0.80795E-03  6656   0.442E-02    0.119E+00
DAV: 124    -0.360165128676E+04    0.29017E-02   -0.29600E-02  6784   0.912E-02    0.103E+00
DAV: 125    -0.360165330466E+04   -0.20179E-02   -0.16196E-02  6784   0.774E-02    0.859E-01
DAV: 126    -0.360165386115E+04   -0.55649E-03   -0.22310E-02  6656   0.811E-02    0.647E-01
DAV: 127    -0.360165608251E+04   -0.22214E-02   -0.15570E-02  6784   0.718E-02    0.501E-01
DAV: 128    -0.360165759640E+04   -0.15139E-02   -0.14436E-02  6912   0.627E-02    0.382E-01
DAV: 129    -0.360166001870E+04   -0.24223E-02   -0.43671E-03  6016   0.409E-02    0.323E-01
DAV: 130    -0.360166000729E+04    0.11402E-04   -0.89877E-03  6656   0.454E-02    0.242E-01
DAV: 131    -0.360166119587E+04   -0.11886E-02   -0.16239E-03  5888   0.287E-02    0.164E-01
DAV: 132    -0.360166137732E+04   -0.18145E-03   -0.70432E-03  6400   0.354E-02    0.146E-01
DAV: 133    -0.360166218463E+04   -0.80730E-03   -0.20707E-03  6272   0.231E-02    0.109E-01
DAV: 134    -0.360166254618E+04   -0.36155E-03   -0.23984E-03  6528   0.214E-02    0.845E-02
DAV: 135    -0.360166287783E+04   -0.33164E-03   -0.14974E-03  6400   0.175E-02    0.824E-02
DAV: 136    -0.360166315869E+04   -0.28087E-03   -0.14436E-03  6400   0.212E-02    0.449E-02
DAV: 137    -0.360166331797E+04   -0.15928E-03   -0.21668E-04  5760   0.105E-02    0.425E-02
DAV: 138    -0.360166336836E+04   -0.50390E-04   -0.35526E-05  6016   0.305E-03    0.424E-02
DAV: 139    -0.360166339091E+04   -0.22548E-04   -0.10703E-05  5888   0.144E-03    0.426E-02
DAV: 140    -0.360166297968E+04    0.41123E-03   -0.14428E-03  6016   0.153E-02    0.450E-02
DAV: 141    -0.360166345781E+04   -0.47813E-03   -0.37094E-03  6272   0.268E-02    0.483E-02
DAV: 142    -0.360166378968E+04   -0.33187E-03   -0.77883E-03  6400   0.291E-02    0.534E-02
DAV: 143    -0.360166413803E+04   -0.34836E-03   -0.82504E-04  5760   0.206E-02    0.480E-02
DAV: 144    -0.360166430252E+04   -0.16448E-03   -0.16167E-03  6272   0.166E-02    0.510E-02
DAV: 145    -0.360166333786E+04    0.96466E-03   -0.37032E-02  6400   0.664E-02    0.831E-02
DAV: 146    -0.360166507084E+04   -0.17330E-02   -0.13647E-02  6528   0.330E-02    0.876E-02
DAV: 147    -0.360166642613E+04   -0.13553E-02   -0.10517E-03  5632   0.227E-02    0.823E-02
DAV: 148    -0.360166675760E+04   -0.33148E-03   -0.73236E-05  5632   0.768E-03    0.827E-02
DAV: 149    -0.360166664696E+04    0.11064E-03   -0.17675E-04  6144   0.923E-03    0.949E-02
DAV: 150    -0.360166574188E+04    0.90508E-03   -0.50073E-03  6016   0.262E-02    0.984E-02
DAV: 151    -0.360166599907E+04   -0.25719E-03   -0.31445E-04  5632   0.125E-02    0.101E-01
DAV: 152    -0.360166616443E+04   -0.16536E-03   -0.29233E-04  6016   0.939E-03    0.987E-02
DAV: 153    -0.360166625425E+04   -0.89818E-04   -0.18741E-04  6400   0.425E-03    0.982E-02
DAV: 154    -0.360166575551E+04    0.49874E-03   -0.20975E-03  6016   0.189E-02    0.103E-01
DAV: 155    -0.360166602176E+04   -0.26625E-03   -0.24303E-03  6016   0.228E-02    0.103E-01
DAV: 156    -0.360166617993E+04   -0.15817E-03   -0.12341E-03  6528   0.988E-03    0.107E-01
DAV: 157    -0.360166644113E+04   -0.26120E-03   -0.13535E-04  5632   0.901E-03    0.106E-01
DAV: 158    -0.360166647101E+04   -0.29881E-04   -0.36592E-04  6144   0.671E-03    0.106E-01
DAV: 159    -0.360166590885E+04    0.56216E-03   -0.49579E-03  6016   0.247E-02    0.106E-01
DAV: 160    -0.360166612138E+04   -0.21253E-03   -0.24438E-04  6144   0.884E-03    0.103E-01
DAV: 161    -0.360166625706E+04   -0.13568E-03   -0.19643E-03  6272   0.191E-02    0.104E-01
DAV: 162    -0.360166653228E+04   -0.27522E-03   -0.10184E-03  6144   0.126E-02    0.105E-01
DAV: 163    -0.360166515736E+04    0.13749E-02   -0.23930E-02  6144   0.554E-02    0.126E-01
DAV: 164    -0.360166741767E+04   -0.22603E-02   -0.54732E-03  5504   0.334E-02    0.961E-02
DAV: 165    -0.360166761037E+04   -0.19270E-03   -0.34218E-03  6400   0.237E-02    0.100E-01
DAV: 166    -0.360166798664E+04   -0.37626E-03   -0.26709E-04  6272   0.908E-03    0.968E-02
DAV: 167    -0.360166797002E+04    0.16618E-04   -0.24457E-04  6272   0.859E-03    0.952E-02
DAV: 168    -0.360166795273E+04    0.17289E-04   -0.47722E-06  5504   0.169E-03    0.945E-02
DAV: 169    -0.360166790623E+04    0.46499E-04   -0.61094E-05  6272   0.268E-03    0.999E-02
DAV: 170    -0.360166770876E+04    0.19747E-03   -0.28225E-03  6400   0.160E-02    0.992E-02
DAV: 171    -0.360166684110E+04    0.86765E-03   -0.11703E-02  6272   0.253E-02    0.103E-01
DAV: 172    -0.360166729241E+04   -0.45130E-03   -0.46247E-04  5632   0.132E-02    0.982E-02
DAV: 173    -0.360166725837E+04    0.34034E-04   -0.79742E-05  6144   0.599E-03    0.985E-02
DAV: 174    -0.360166727376E+04   -0.15388E-04   -0.29344E-04  6272   0.427E-03    0.100E-01
DAV: 175    -0.360166728070E+04   -0.69432E-05   -0.55153E-05  6272   0.274E-03    0.996E-02
DAV: 176    -0.360166737797E+04   -0.97268E-04   -0.98572E-04  6400   0.122E-02    0.101E-01
DAV: 177    -0.360166739642E+04   -0.18452E-04   -0.20758E-03  6272   0.165E-02    0.102E-01
DAV: 178    -0.360166733666E+04    0.59767E-04   -0.11469E-04  5888   0.616E-03    0.101E-01
DAV: 179    -0.360166737529E+04   -0.38628E-04   -0.37645E-04  6400   0.813E-03    0.100E-01
DAV: 180    -0.360166745366E+04   -0.78373E-04   -0.92411E-05  6528   0.344E-03    0.101E-01
DAV: 181    -0.360166743666E+04    0.16997E-04   -0.83212E-04  6144   0.103E-02    0.106E-01
DAV: 182    -0.360166738570E+04    0.50957E-04   -0.24613E-05  5760   0.355E-03    0.105E-01
DAV: 183    -0.360166736984E+04    0.15866E-04   -0.32571E-05  6016   0.254E-03    0.104E-01
DAV: 184    -0.360166732939E+04    0.40444E-04   -0.72988E-04  6016   0.752E-03    0.106E-01
DAV: 185    -0.360166712420E+04    0.20519E-03   -0.16000E-03  6144   0.157E-02    0.113E-01
DAV: 186    -0.360166669127E+04    0.43293E-03   -0.31545E-03  6016   0.192E-02    0.116E-01
DAV: 187    -0.360166664913E+04    0.42141E-04   -0.65809E-04  6144   0.957E-03    0.110E-01
DAV: 188    -0.360166661835E+04    0.30775E-04   -0.13805E-04  5888   0.568E-03    0.109E-01
DAV: 189    -0.360166660049E+04    0.17862E-04   -0.11694E-04  6016   0.600E-03    0.109E-01
DAV: 190    -0.360166663066E+04   -0.30163E-04   -0.13444E-04  6784   0.380E-03    0.110E-01
DAV: 191    -0.360166667825E+04   -0.47595E-04   -0.48404E-03  5760   0.232E-02    0.948E-02
DAV: 192    -0.360166680164E+04   -0.12339E-03   -0.63687E-03  5760   0.300E-02    0.985E-02
DAV: 193    -0.360166694739E+04   -0.14576E-03   -0.89902E-03  5760   0.277E-02    0.102E-01
DAV: 194    -0.360166770072E+04   -0.75333E-03   -0.51619E-04  5120   0.187E-02    0.103E-01
DAV: 195    -0.360166775736E+04   -0.56638E-04   -0.15202E-05  6144   0.232E-03    0.103E-01
DAV: 196    -0.360166779670E+04   -0.39341E-04   -0.19446E-04  6272   0.506E-03    0.101E-01
DAV: 197    -0.360166778677E+04    0.99322E-05   -0.49812E-06  5632   0.195E-03    0.101E-01
DAV: 198    -0.360166777511E+04    0.11664E-04   -0.28575E-05  6272   0.220E-03    0.101E-01
DAV: 199    -0.360166778543E+04   -0.10325E-04   -0.23830E-04  6656   0.598E-03    0.103E-01
DAV: 200    -0.360166783334E+04   -0.47912E-04   -0.14423E-03  5888   0.131E-02    0.105E-01
DAV: 201    -0.360166791293E+04   -0.79588E-04   -0.54948E-04  5632   0.138E-02    0.110E-01
DAV: 202    -0.360166782171E+04    0.91220E-04   -0.12869E-03  5632   0.164E-02    0.112E-01
DAV: 203    -0.360166769013E+04    0.13158E-03   -0.48192E-03  5888   0.240E-02    0.115E-01
DAV: 204    -0.360166839129E+04   -0.70116E-03   -0.37060E-04  5120   0.132E-02    0.121E-01
DAV: 205    -0.360166848798E+04   -0.96692E-04   -0.61711E-05  5760   0.403E-03    0.123E-01
DAV: 206    -0.360166844934E+04    0.38644E-04   -0.19387E-04  5760   0.769E-03    0.124E-01
DAV: 207    -0.360166852494E+04   -0.75607E-04   -0.16487E-05  5120   0.314E-03    0.124E-01
DAV: 208    -0.360166853962E+04   -0.14674E-04   -0.13572E-06  5888   0.902E-04    0.124E-01
DAV: 209    -0.360166854448E+04   -0.48648E-05   -0.20538E-06  5120   0.673E-04    0.124E-01
DAV: 210    -0.360166843846E+04    0.10602E-03   -0.34249E-04  5632   0.832E-03    0.124E-01
DAV: 211    -0.360166748788E+04    0.95058E-03   -0.14141E-02  5760   0.451E-02    0.140E-01
DAV: 212    -0.360166878913E+04   -0.13013E-02   -0.25160E-03  5504   0.318E-02    0.140E-01
DAV: 213    -0.360166863605E+04    0.15308E-03   -0.43165E-04  5888   0.702E-03    0.140E-01
DAV: 214    -0.360166862512E+04    0.10934E-04   -0.62788E-05  5632   0.515E-03    0.139E-01
DAV: 215    -0.360166857585E+04    0.49266E-04   -0.15687E-05  5504   0.252E-03    0.139E-01
DAV: 216    -0.360166828187E+04    0.29398E-03   -0.14092E-03  5504   0.131E-02    0.143E-01
DAV: 217    -0.360166816524E+04    0.11663E-03   -0.91992E-04  5632   0.104E-02    0.142E-01
DAV: 218    -0.360166811599E+04    0.49247E-04   -0.29821E-04  5888   0.618E-03    0.140E-01
DAV: 219    -0.360166808069E+04    0.35302E-04   -0.42533E-05  5504   0.496E-03    0.140E-01
DAV: 220    -0.360166790897E+04    0.17173E-03   -0.63468E-04  5888   0.894E-03    0.143E-01
DAV: 221    -0.360166746738E+04    0.44159E-03   -0.27103E-03  5504   0.241E-02    0.139E-01
DAV: 222    -0.360166799550E+04   -0.52812E-03   -0.14703E-04  5248   0.842E-03    0.140E-01
DAV: 223    -0.360166815475E+04   -0.15925E-03   -0.30308E-04  5504   0.911E-03    0.140E-01
DAV: 224    -0.360166809890E+04    0.55844E-04   -0.41512E-05  6400   0.239E-03    0.139E-01
DAV: 225    -0.360166802962E+04    0.69287E-04   -0.26917E-05  5760   0.342E-03    0.139E-01
DAV: 226    -0.360166771643E+04    0.31319E-03   -0.14049E-03  5760   0.161E-02    0.149E-01
DAV: 227    -0.360166762942E+04    0.87011E-04   -0.45138E-04  5504   0.128E-02    0.151E-01
DAV: 228    -0.360166757133E+04    0.58084E-04   -0.14506E-04  5632   0.483E-03    0.151E-01
DAV: 229    -0.360166754943E+04    0.21901E-04   -0.22188E-04  5760   0.370E-03    0.152E-01
DAV: 230    -0.360166755120E+04   -0.17723E-05   -0.20255E-04  5760   0.492E-03    0.153E-01
DAV: 231    -0.360166728186E+04    0.26934E-03   -0.68502E-04  5504   0.127E-02    0.154E-01
DAV: 232    -0.360166715429E+04    0.12757E-03   -0.16602E-03  6016   0.135E-02    0.156E-01
DAV: 233    -0.360166777917E+04   -0.62488E-03   -0.93364E-05  5120   0.833E-03    0.157E-01
DAV: 234    -0.360166778958E+04   -0.10411E-04   -0.12744E-04  6272   0.397E-03    0.157E-01
DAV: 235    -0.360166793118E+04   -0.14160E-03   -0.40763E-05  5632   0.465E-03    0.158E-01
DAV: 236    -0.360166312893E+04    0.48023E-02   -0.81455E-02  5888   0.102E-01    0.170E-01
DAV: 237    -0.360166601895E+04   -0.28900E-02   -0.67208E-03  5248   0.538E-02    0.151E-01
DAV: 238    -0.360166577740E+04    0.24155E-03   -0.32839E-03  5504   0.263E-02    0.152E-01
DAV: 239    -0.360166598878E+04   -0.21139E-03   -0.43588E-03  5760   0.250E-02    0.154E-01
DAV: 240    -0.360166587901E+04    0.10977E-03   -0.11664E-02  5760   0.354E-02    0.160E-01
DAV: 241    -0.360166670117E+04   -0.82216E-03   -0.50046E-03  5760   0.219E-02    0.172E-01
DAV: 242    -0.360166733088E+04   -0.62971E-03   -0.96599E-04  5504   0.149E-02    0.173E-01
DAV: 243    -0.360166768382E+04   -0.35293E-03   -0.18427E-04  5504   0.775E-03    0.175E-01
DAV: 244    -0.360166774252E+04   -0.58702E-04   -0.19379E-03  5760   0.158E-02    0.172E-01
DAV: 245    -0.360166798965E+04   -0.24713E-03   -0.20610E-03  6144   0.130E-02    0.172E-01
DAV: 246    -0.360166822214E+04   -0.23249E-03   -0.14200E-03  5760   0.116E-02    0.177E-01
DAV: 247    -0.360166850610E+04   -0.28396E-03   -0.12630E-03  5504   0.101E-02    0.179E-01
DAV: 248    -0.360166880948E+04   -0.30338E-03   -0.50205E-04  5760   0.801E-03    0.178E-01
DAV: 249    -0.360166888412E+04   -0.74644E-04   -0.92405E-04  5504   0.107E-02    0.180E-01
DAV: 250    -0.360166917642E+04   -0.29230E-03   -0.16407E-04  5760   0.715E-03    0.181E-01
DAV: 251    -0.360166937552E+04   -0.19909E-03   -0.46862E-04  5504   0.130E-02    0.181E-01
DAV: 252    -0.360166925741E+04    0.11811E-03   -0.19233E-05  5120   0.404E-03    0.180E-01
DAV: 253    -0.360166922320E+04    0.34204E-04   -0.11262E-06  5504   0.104E-03    0.180E-01
DAV: 254    -0.360166923478E+04   -0.11582E-04   -0.57423E-06  5504   0.126E-03    0.180E-01
DAV: 255    -0.360166927072E+04   -0.35940E-04   -0.52210E-05  5760   0.363E-03    0.178E-01
DAV: 256    -0.360166922003E+04    0.50693E-04   -0.68858E-05  6144   0.354E-03    0.180E-01
DAV: 257    -0.360166920652E+04    0.13514E-04   -0.86963E-06  5632   0.198E-03    0.179E-01
DAV: 258    -0.360166923990E+04   -0.33386E-04   -0.38004E-05  5760   0.265E-03    0.177E-01
DAV: 259    -0.360166930149E+04   -0.61591E-04   -0.80407E-05  5504   0.410E-03    0.175E-01
DAV: 260    -0.360166924085E+04    0.60642E-04   -0.86829E-06  6016   0.183E-03    0.174E-01
DAV: 261    -0.360166919480E+04    0.46056E-04   -0.54669E-05  5632   0.401E-03    0.175E-01
DAV: 262    -0.360166926919E+04   -0.74391E-04   -0.61739E-05  5504   0.428E-03    0.174E-01
DAV: 263    -0.360166917177E+04    0.97419E-04   -0.11020E-04  5504   0.588E-03    0.174E-01
DAV: 264    -0.360166917544E+04   -0.36679E-05   -0.29832E-04  5888   0.650E-03    0.173E-01
DAV: 265    -0.360166926395E+04   -0.88510E-04   -0.22634E-04  5888   0.417E-03    0.174E-01
DAV: 266    -0.360166947533E+04   -0.21138E-03   -0.12133E-04  5504   0.811E-03    0.174E-01
DAV: 267    -0.360166941784E+04    0.57489E-04   -0.16115E-05  5504   0.250E-03    0.174E-01
DAV: 268    -0.360166926871E+04    0.14913E-03   -0.81006E-04  5504   0.130E-02    0.176E-01
DAV: 269    -0.360166945243E+04   -0.18373E-03   -0.13397E-04  5760   0.530E-03    0.179E-01
DAV: 270    -0.360166958660E+04   -0.13417E-03   -0.24307E-05  5120   0.424E-03    0.179E-01
DAV: 271    -0.360166968482E+04   -0.98218E-04   -0.17123E-04  5504   0.711E-03    0.179E-01
DAV: 272    -0.360166958749E+04    0.97321E-04   -0.11321E-05  5120   0.313E-03    0.179E-01
DAV: 273    -0.360166956390E+04    0.23591E-04   -0.22691E-06  5120   0.768E-04    0.179E-01
DAV: 274    -0.360166956059E+04    0.33146E-05   -0.13310E-05  5632   0.184E-03    0.179E-01
DAV: 275    -0.360166957579E+04   -0.15198E-04   -0.18651E-05  5760   0.225E-03    0.179E-01
DAV: 276    -0.360164916041E+04    0.20415E-01   -0.25900E-01  5888   0.194E-01    0.219E-01
DAV: 277    -0.360166674330E+04   -0.17583E-01   -0.62258E-03  5120   0.700E-02    0.146E-01
DAV: 278    -0.360166746739E+04   -0.72409E-03   -0.10623E-03  5504   0.217E-02    0.137E-01
DAV: 279    -0.360166759650E+04   -0.12911E-03   -0.12784E-02  5632   0.397E-02    0.124E-01
DAV: 280    -0.360166813453E+04   -0.53803E-03   -0.14173E-03  5760   0.174E-02    0.122E-01
DAV: 281    -0.360166828405E+04   -0.14952E-03   -0.26465E-04  5376   0.792E-03    0.124E-01
DAV: 282    -0.360166833279E+04   -0.48734E-04   -0.31623E-04  6144   0.593E-03    0.124E-01
DAV: 283    -0.360166838742E+04   -0.54631E-04   -0.17972E-04  6016   0.490E-03    0.124E-01
DAV: 284    -0.360166841834E+04   -0.30921E-04   -0.38432E-04  5632   0.683E-03    0.124E-01
DAV: 285    -0.360166850826E+04   -0.89921E-04   -0.25212E-04  6016   0.458E-03    0.126E-01
DAV: 286    -0.360166839621E+04    0.11205E-03   -0.19363E-03  5632   0.199E-02    0.128E-01
DAV: 287    -0.360166837611E+04    0.20100E-04   -0.22675E-04  5504   0.816E-03    0.124E-01
DAV: 288    -0.360166837345E+04    0.26647E-05   -0.17077E-04  5632   0.564E-03    0.124E-01
DAV: 289    -0.360166842843E+04   -0.54985E-04   -0.10936E-04  6016   0.406E-03    0.124E-01
DAV: 290    -0.360166848372E+04   -0.55282E-04   -0.33218E-05  5760   0.323E-03    0.124E-01
DAV: 291    -0.360166850448E+04   -0.20762E-04   -0.20447E-04  5760   0.522E-03    0.124E-01
DAV: 292    -0.360166849768E+04    0.67978E-05   -0.16990E-05  5760   0.244E-03    0.122E-01
DAV: 293    -0.360166850344E+04   -0.57626E-05   -0.39145E-06  5504   0.891E-04    0.122E-01
DAV: 294    -0.360166850671E+04   -0.32657E-05   -0.23509E-07  4224   0.445E-04    0.122E-01
DAV: 295    -0.360166850683E+04   -0.12481E-06   -0.25213E-07  4352   0.218E-04
 augmentation electrons   1811.87752136988     
 soft         electrons  0.000000000000000E+000
 total        electrons   1811.87752136988     
 augmentation electrons -6.751528068668480E-002
 soft         electrons  0.000000000000000E+000
 total        electrons -6.751528068668480E-002
 augmentation electrons   1923.93918884376     
 soft         electrons  0.000000000000000E+000
 total        electrons   1923.93918884376     
 augmentation electrons   1866.42202897176     
 soft         electrons  0.000000000000000E+000
 total        electrons   1866.42202897176     
 augmentation electrons   54.7844118210756     
 soft         electrons   1757.09302333115     
 total        electrons   1811.87743515222     
 augmentation electrons   31.0700839517954     
 soft         electrons   1757.09302333115     
 total        electrons   49.9324552943082     
 translations:           0           1           0
   1 F= -.36395658E+04 E0= -.36395658E+04  d E =-.363957E+04  mag=    50.0000
 curvature:   0.00 expect dE= 0.000E+00 dE for cont linesearch  0.000E+00
 trial: gam= 0.00000 g(F)=  0.245E+00 g(S)=  0.000E+00 ort = 0.000E+00 (trialstep = 0.100E+01)
 search vector abs. value=  0.245E+00
 bond charge predicted
       N       E                     dE             d eps       ncg     rms          rms(c)
DAV:   1    -0.360177257114E+04   -0.10406E+00   -0.17116E+01  5248   0.244E+00    0.207E+00
DAV:   2    -0.360183947449E+04   -0.66903E-01   -0.80231E-01  6144   0.556E-01    0.122E+00
DAV:   3    -0.360183815712E+04    0.13174E-02   -0.22304E-02  5760   0.116E-01    0.659E-01
DAV:   4    -0.360183713071E+04    0.10264E-02   -0.21857E-03  6912   0.306E-02    0.439E-01
DAV:   5    -0.360183639045E+04    0.74026E-03   -0.47449E-03  6528   0.470E-02    0.165E-01
DAV:   6    -0.360183664856E+04   -0.25811E-03   -0.14047E-03  6272   0.234E-02    0.565E-02
DAV:   7    -0.360183677582E+04   -0.12726E-03   -0.27344E-04  6400   0.817E-03    0.451E-02
DAV:   8    -0.360183690242E+04   -0.12661E-03   -0.30324E-04  6784   0.599E-03    0.396E-02
DAV:   9    -0.360183707939E+04   -0.17697E-03   -0.68455E-04  6528   0.883E-03    0.373E-02
DAV:  10    -0.360183720845E+04   -0.12906E-03   -0.25065E-04  6400   0.551E-03    0.366E-02
DAV:  11    -0.360183715284E+04    0.55611E-04   -0.83292E-05  6016   0.638E-03    0.366E-02
DAV:  12    -0.360183730516E+04   -0.15232E-03   -0.44667E-04  6400   0.917E-03    0.362E-02
DAV:  13    -0.360183707333E+04    0.23184E-03   -0.24074E-02  6144   0.573E-02    0.591E-02
DAV:  14    -0.360183844286E+04   -0.13695E-02   -0.87657E-04  5376   0.243E-02    0.452E-02
DAV:  15    -0.360183743254E+04    0.10103E-02   -0.79133E-03  6144   0.377E-02    0.569E-02
DAV:  16    -0.360183785253E+04   -0.41999E-03   -0.31624E-04  5376   0.152E-02    0.505E-02
DAV:  17    -0.360183616081E+04    0.16917E-02   -0.13432E-02  6144   0.409E-02    0.864E-02
DAV:  18    -0.360183377394E+04    0.23869E-02   -0.24804E-02  6144   0.472E-02    0.125E-01
DAV:  19    -0.360183585054E+04   -0.20766E-02   -0.13830E-02  6016   0.625E-02    0.101E-01
DAV:  20    -0.360183392784E+04    0.19227E-02   -0.47525E-02  6272   0.754E-02    0.122E-01
DAV:  21    -0.360183655012E+04   -0.26223E-02   -0.14168E-02  6400   0.376E-02    0.140E-01
DAV:  22    -0.360183851930E+04   -0.19692E-02   -0.13179E-03  5120   0.296E-02    0.140E-01
DAV:  23    -0.360183859435E+04   -0.75050E-04   -0.23634E-05  6016   0.386E-03    0.140E-01
DAV:  24    -0.360183843478E+04    0.15956E-03   -0.12082E-03  6400   0.144E-02    0.144E-01
DAV:  25    -0.360183777344E+04    0.66135E-03   -0.46471E-03  6272   0.228E-02    0.160E-01
DAV:  26    -0.360183749085E+04    0.28259E-03   -0.19349E-03  6272   0.132E-02    0.163E-01
DAV:  27    -0.360183755010E+04   -0.59248E-04   -0.13268E-04  5376   0.106E-02    0.160E-01
DAV:  28    -0.360183752127E+04    0.28830E-04   -0.36864E-06  5760   0.186E-03    0.161E-01
DAV:  29    -0.360183754237E+04   -0.21100E-04   -0.45260E-04  5888   0.876E-03    0.159E-01
DAV:  30    -0.360183763376E+04   -0.91388E-04   -0.12291E-03  5888   0.110E-02    0.155E-01
DAV:  31    -0.360183783603E+04   -0.20227E-03   -0.21149E-04  6016   0.520E-03    0.157E-01
DAV:  32    -0.360183791512E+04   -0.79092E-04   -0.34235E-05  5760   0.423E-03    0.158E-01
DAV:  33    -0.360183790700E+04    0.81202E-05   -0.18394E-06  5248   0.939E-04    0.157E-01
DAV:  34    -0.360183790292E+04    0.40850E-05   -0.68189E-05  5888   0.307E-03    0.156E-01
DAV:  35    -0.360183786182E+04    0.41097E-04   -0.16313E-04  5760   0.492E-03    0.156E-01
DAV:  36    -0.360183775652E+04    0.10530E-03   -0.75889E-04  5760   0.791E-03    0.158E-01
DAV:  37    -0.360183786931E+04   -0.11279E-03   -0.12594E-04  5760   0.718E-03    0.157E-01
DAV:  38    -0.360183792546E+04   -0.56152E-04   -0.13954E-05  5504   0.223E-03    0.158E-01
DAV:  39    -0.360183792077E+04    0.46925E-05   -0.17991E-04  5632   0.384E-03    0.158E-01
DAV:  40    -0.360183793275E+04   -0.11983E-04   -0.83792E-06  5376   0.192E-03    0.158E-01
DAV:  41    -0.360183793480E+04   -0.20507E-05   -0.28149E-06  5376   0.101E-03    0.157E-01
DAV:  42    -0.360183795202E+04   -0.17211E-04   -0.40152E-06  5248   0.719E-04    0.157E-01
DAV:  43    -0.360183792589E+04    0.26122E-04   -0.71734E-04  5888   0.107E-02    0.154E-01
DAV:  44    -0.360183801589E+04   -0.89998E-04   -0.12645E-03  6144   0.114E-02    0.150E-01
DAV:  45    -0.360183822548E+04   -0.20959E-03   -0.14220E-03  5888   0.107E-02    0.149E-01
DAV:  46    -0.360183840727E+04   -0.18179E-03   -0.25489E-03  5760   0.147E-02    0.145E-01
DAV:  47    -0.360183897474E+04   -0.56747E-03   -0.97607E-04  5504   0.198E-02    0.152E-01
DAV:  48    -0.360183876726E+04    0.20749E-03   -0.89974E-04  6272   0.104E-02    0.158E-01
DAV:  49    -0.360183865988E+04    0.10738E-03   -0.10423E-04  5760   0.520E-03    0.156E-01
DAV:  50    -0.360183859787E+04    0.62007E-04   -0.30866E-04  5888   0.910E-03    0.153E-01
DAV:  51    -0.360183818478E+04    0.41309E-03   -0.51109E-03  5760   0.275E-02    0.148E-01
DAV:  52    -0.360183896993E+04   -0.78515E-03   -0.17847E-03  5504   0.264E-02    0.153E-01
DAV:  53    -0.360183895036E+04    0.19575E-04   -0.18438E-04  5504   0.886E-03    0.152E-01
DAV:  54    -0.360183894472E+04    0.56371E-05   -0.18995E-04  5760   0.655E-03    0.155E-01
DAV:  55    -0.360183890782E+04    0.36896E-04   -0.48168E-05  5504   0.428E-03    0.153E-01
DAV:  56    -0.360183882489E+04    0.82938E-04   -0.76246E-04  5632   0.121E-02    0.151E-01
DAV:  57    -0.360179652449E+04    0.42300E-01   -0.53091E-01  5760   0.260E-01    0.475E-01
DAV:  58    -0.360183691764E+04   -0.40393E-01   -0.18571E-01  5632   0.236E-01    0.127E-01
DAV:  59    -0.360184132719E+04   -0.44096E-02   -0.24733E-03  5120   0.409E-02    0.877E-02
DAV:  60    -0.360184124956E+04    0.77630E-04   -0.18319E-03  6144   0.141E-02    0.754E-02
DAV:  61    -0.360184104140E+04    0.20816E-03   -0.16936E-03  6272   0.133E-02    0.615E-02
DAV:  62    -0.360184116551E+04   -0.12412E-03   -0.11667E-03  5888   0.186E-02    0.612E-02
DAV:  63    -0.360184048348E+04    0.68204E-03   -0.31112E-03  5760   0.251E-02    0.948E-02
DAV:  64    -0.360183962094E+04    0.86254E-03   -0.23641E-03  6016   0.165E-02    0.131E-01
DAV:  65    -0.360183917534E+04    0.44560E-03   -0.29642E-03  5760   0.147E-02    0.142E-01
DAV:  66    -0.360183852484E+04    0.65050E-03   -0.35704E-03  6400   0.176E-02    0.150E-01
DAV:  67    -0.360183927444E+04   -0.74959E-03   -0.73402E-04  5248   0.167E-02    0.120E-01
DAV:  68    -0.360183935779E+04   -0.83358E-04   -0.28956E-04  6016   0.661E-03    0.104E-01
DAV:  69    -0.360183945423E+04   -0.96434E-04   -0.14326E-04  5888   0.461E-03    0.938E-02
DAV:  70    -0.360183943555E+04    0.18675E-04   -0.10087E-05  5760   0.191E-03    0.944E-02
DAV:  71    -0.360183935158E+04    0.83977E-04   -0.68239E-05  6272   0.299E-03    0.968E-02
DAV:  72    -0.360183922823E+04    0.12335E-03   -0.20009E-04  6144   0.477E-03    0.990E-02
DAV:  73    -0.360183921470E+04    0.13528E-04   -0.73779E-05  6144   0.315E-03    0.964E-02
DAV:  74    -0.360183925099E+04   -0.36297E-04   -0.12865E-05  5760   0.215E-03    0.934E-02
DAV:  75    -0.360183923252E+04    0.18471E-04   -0.11056E-04  5760   0.317E-03    0.917E-02
DAV:  76    -0.360183923452E+04   -0.19975E-05   -0.14506E-04  6016   0.390E-03    0.901E-02
DAV:  77    -0.360183961999E+04   -0.38547E-03   -0.97871E-04  6016   0.134E-02    0.653E-02
DAV:  78    -0.360183975985E+04   -0.13986E-03   -0.37188E-04  6272   0.618E-03    0.663E-02
DAV:  79    -0.360183971635E+04    0.43502E-04   -0.14926E-04  5632   0.792E-03    0.642E-02
DAV:  80    -0.360183962338E+04    0.92973E-04   -0.13643E-04  6272   0.409E-03    0.638E-02
DAV:  81    -0.360183940363E+04    0.21975E-03   -0.67114E-04  5760   0.890E-03    0.617E-02
DAV:  82    -0.360183906173E+04    0.34191E-03   -0.11833E-03  6016   0.104E-02    0.732E-02
DAV:  83    -0.360183904290E+04    0.18822E-04   -0.29406E-04  5760   0.616E-03    0.661E-02
DAV:  84    -0.360183897345E+04    0.69450E-04   -0.19874E-04  6016   0.396E-03    0.622E-02
DAV:  85    -0.360183898953E+04   -0.16074E-04   -0.13632E-05  5248   0.313E-03    0.615E-02
DAV:  86    -0.360183899156E+04   -0.20293E-05   -0.64080E-07  4864   0.829E-04    0.614E-02
DAV:  87    -0.360183896563E+04    0.25926E-04   -0.66397E-05  6144   0.359E-03    0.575E-02
DAV:  88    -0.360183901722E+04   -0.51592E-04   -0.16009E-04  5888   0.505E-03    0.590E-02
DAV:  89    -0.360183900919E+04    0.80321E-05   -0.19301E-05  5504   0.264E-03    0.591E-02
DAV:  90    -0.360183901739E+04   -0.81981E-05   -0.22470E-06  5248   0.989E-04    0.591E-02
DAV:  91    -0.360183898015E+04    0.37239E-04   -0.28986E-05  5888   0.218E-03    0.581E-02
DAV:  92    -0.360183887416E+04    0.10599E-03   -0.31627E-04  5888   0.641E-03    0.516E-02
DAV:  93    -0.360183904402E+04   -0.16986E-03   -0.46383E-04  5504   0.108E-02    0.536E-02
DAV:  94    -0.360183905720E+04   -0.13180E-04   -0.33485E-05  5376   0.305E-03    0.531E-02
DAV:  95    -0.360183904527E+04    0.11932E-04   -0.31743E-06  5248   0.152E-03    0.529E-02
DAV:  96    -0.360183903378E+04    0.11489E-04   -0.19583E-06  4736   0.579E-04    0.531E-02
DAV:  97    -0.360183872917E+04    0.30461E-03   -0.15716E-03  5760   0.147E-02    0.508E-02
DAV:  98    -0.360183882890E+04   -0.99721E-04   -0.75656E-05  5120   0.750E-03    0.498E-02
DAV:  99    -0.360183878193E+04    0.46970E-04   -0.17882E-04  5888   0.563E-03    0.495E-02
DAV: 100    -0.360183843092E+04    0.35100E-03   -0.18501E-03  6144   0.150E-02    0.497E-02
DAV: 101    -0.360183847214E+04   -0.41218E-04   -0.12243E-04  5376   0.708E-03    0.478E-02
DAV: 102    -0.360183805451E+04    0.41763E-03   -0.29529E-03  5888   0.200E-02    0.696E-02
DAV: 103    -0.360183792241E+04    0.13210E-03   -0.11862E-03  5760   0.111E-02    0.767E-02
DAV: 104    -0.360183797186E+04   -0.49451E-04   -0.18162E-04  5632   0.969E-03    0.670E-02
DAV: 105    -0.360183799229E+04   -0.20431E-04   -0.18111E-05  5760   0.195E-03    0.684E-02
DAV: 106    -0.360183801914E+04   -0.26853E-04   -0.18898E-04  5888   0.601E-03    0.655E-02
DAV: 107    -0.360183375304E+04    0.42661E-02   -0.43474E-02  6016   0.719E-02    0.169E-01
DAV: 108    -0.360183650692E+04   -0.27539E-02   -0.37504E-03  5760   0.414E-02    0.129E-01
DAV: 109    -0.360183669865E+04   -0.19172E-03   -0.28635E-03  6144   0.195E-02    0.116E-01
DAV: 110    -0.360183694692E+04   -0.24827E-03   -0.37392E-03  5888   0.177E-02    0.112E-01
DAV: 111    -0.360183692575E+04    0.21173E-04   -0.14704E-02  5888   0.371E-02    0.112E-01
DAV: 112    -0.360183626846E+04    0.65729E-03   -0.37987E-02  5888   0.586E-02    0.124E-01
DAV: 113    -0.360183683634E+04   -0.56788E-03   -0.40286E-02  6528   0.558E-02    0.145E-01
DAV: 114    -0.360184052079E+04   -0.36845E-02   -0.34013E-03  5248   0.357E-02    0.125E-01
DAV: 115    -0.360184097961E+04   -0.45882E-03   -0.47929E-04  5376   0.134E-02    0.124E-01
DAV: 116    -0.360184120070E+04   -0.22108E-03   -0.91382E-04  5632   0.171E-02    0.980E-02
DAV: 117    -0.360184136340E+04   -0.16270E-03   -0.16026E-03  5888   0.175E-02    0.108E-01
DAV: 118    -0.360184188394E+04   -0.52054E-03   -0.16097E-03  5760   0.152E-02    0.753E-02
DAV: 119    -0.360184216533E+04   -0.28140E-03   -0.18479E-03  6144   0.132E-02    0.790E-02
DAV: 120    -0.360184232688E+04   -0.16155E-03   -0.16464E-04  5120   0.963E-03    0.677E-02
DAV: 121    -0.360184237448E+04   -0.47604E-04   -0.74651E-05  6528   0.287E-03    0.688E-02
DAV: 122    -0.360184242285E+04   -0.48363E-04   -0.26639E-03  5888   0.206E-02    0.953E-02
DAV: 123    -0.360184189358E+04    0.52927E-03   -0.69556E-03  5888   0.404E-02    0.422E-02
DAV: 124    -0.360184227892E+04   -0.38534E-03   -0.17521E-04  5120   0.126E-02    0.374E-02
DAV: 125    -0.360184162357E+04    0.65535E-03   -0.32001E-03  5760   0.212E-02    0.404E-02
DAV: 126    -0.360184130989E+04    0.31368E-03   -0.21685E-03  6400   0.131E-02    0.428E-02
DAV: 127    -0.360184099657E+04    0.31332E-03   -0.26090E-03  6016   0.159E-02    0.408E-02
DAV: 128    -0.360184129943E+04   -0.30286E-03   -0.16202E-04  5120   0.116E-02    0.377E-02
DAV: 129    -0.360184131858E+04   -0.19148E-04   -0.64049E-06  5632   0.222E-03    0.363E-02
DAV: 130    -0.360184133680E+04   -0.18213E-04   -0.17563E-05  5632   0.198E-03    0.382E-02
DAV: 131    -0.360184153094E+04   -0.19414E-03   -0.99890E-04  5888   0.123E-02    0.400E-02
DAV: 132    -0.360184031547E+04    0.12155E-02   -0.10482E-02  5888   0.412E-02    0.525E-02
DAV: 133    -0.360184107437E+04   -0.75889E-03   -0.22819E-03  5504   0.288E-02    0.510E-02
DAV: 134    -0.360184136137E+04   -0.28700E-03   -0.27726E-03  5888   0.186E-02    0.501E-02
DAV: 135    -0.360184154858E+04   -0.18721E-03   -0.17988E-04  5504   0.898E-03    0.494E-02
DAV: 136    -0.360184168191E+04   -0.13332E-03   -0.33793E-04  6016   0.516E-03    0.478E-02
DAV: 137    -0.360184165798E+04    0.23927E-04   -0.92198E-04  5888   0.121E-02    0.671E-02
DAV: 138    -0.360184157599E+04    0.81992E-04   -0.47715E-04  5632   0.120E-02    0.645E-02
DAV: 139    -0.360184161318E+04   -0.37191E-04   -0.26045E-05  5248   0.415E-03    0.645E-02
DAV: 140    -0.360184166937E+04   -0.56198E-04   -0.44511E-05  6016   0.268E-03    0.623E-02
DAV: 141    -0.360184165010E+04    0.19275E-04   -0.76503E-06  5504   0.204E-03    0.630E-02
DAV: 142    -0.360184153018E+04    0.11991E-03   -0.18997E-04  5888   0.561E-03    0.694E-02
DAV: 143    -0.360184181764E+04   -0.28746E-03   -0.99564E-04  6016   0.151E-02    0.463E-02
DAV: 144    -0.360184188137E+04   -0.63732E-04   -0.45705E-05  5248   0.566E-03    0.480E-02
DAV: 145    -0.360184189128E+04   -0.99084E-05   -0.29513E-06  5504   0.128E-03    0.482E-02
DAV: 146    -0.360184189831E+04   -0.70260E-05   -0.14290E-06  4992   0.520E-04    0.481E-02
DAV: 147    -0.360184209489E+04   -0.19658E-03   -0.26925E-03  5632   0.204E-02    0.458E-02
DAV: 148    -0.360184196805E+04    0.12684E-03   -0.12887E-03  5632   0.204E-02    0.429E-02
DAV: 149    -0.360184201821E+04   -0.50163E-04   -0.21885E-05  5120   0.431E-03    0.415E-02
DAV: 150    -0.360184209291E+04   -0.74702E-04   -0.10319E-04  5760   0.478E-03    0.404E-02
DAV: 151    -0.360184198884E+04    0.10407E-03   -0.26772E-04  5632   0.734E-03    0.421E-02
DAV: 152    -0.360184176101E+04    0.22783E-03   -0.22939E-02  5632   0.595E-02    0.625E-02
DAV: 153    -0.360184218285E+04   -0.42183E-03   -0.72419E-03  5504   0.497E-02    0.437E-02
DAV: 154    -0.360184233142E+04   -0.14857E-03   -0.14562E-04  5376   0.860E-03    0.401E-02
DAV: 155    -0.360184226867E+04    0.62756E-04   -0.12703E-04  6144   0.344E-03    0.396E-02
DAV: 156    -0.360184205458E+04    0.21409E-03   -0.57336E-04  5760   0.804E-03    0.407E-02
DAV: 157    -0.360183999221E+04    0.20624E-02   -0.13987E-02  6016   0.442E-02    0.921E-02
DAV: 158    -0.360184090265E+04   -0.91044E-03   -0.76380E-04  5120   0.219E-02    0.878E-02
DAV: 159    -0.360184076440E+04    0.13825E-03   -0.68460E-04  6016   0.826E-03    0.862E-02
DAV: 160    -0.360184082254E+04   -0.58136E-04   -0.28456E-04  5632   0.693E-03    0.826E-02
DAV: 161    -0.360184087939E+04   -0.56859E-04   -0.92777E-04  5504   0.104E-02    0.834E-02
DAV: 162    -0.360184025985E+04    0.61954E-03   -0.54775E-03  5888   0.290E-02    0.774E-02
DAV: 163    -0.360183966299E+04    0.59687E-03   -0.52029E-03  5888   0.229E-02    0.691E-02
DAV: 164    -0.360183997209E+04   -0.30911E-03   -0.45772E-04  5248   0.135E-02    0.611E-02
DAV: 165    -0.360183998482E+04   -0.12727E-04   -0.88209E-05  5504   0.520E-03    0.617E-02
DAV: 166    -0.360183988971E+04    0.95111E-04   -0.28394E-04  6144   0.579E-03    0.633E-02
DAV: 167    -0.360183878292E+04    0.11068E-02   -0.94988E-03  5760   0.366E-02    0.783E-02
DAV: 168    -0.360183950766E+04   -0.72473E-03   -0.49364E-04  5120   0.190E-02    0.687E-02
DAV: 169    -0.360183961319E+04   -0.10553E-03   -0.14615E-03  5632   0.163E-02    0.715E-02
DAV: 170    -0.360183974760E+04   -0.13441E-03   -0.20145E-03  6016   0.148E-02    0.805E-02
DAV: 171    -0.360183824469E+04    0.15029E-02   -0.19214E-02  5888   0.586E-02    0.911E-02
DAV: 172    -0.360183824897E+04   -0.42719E-05   -0.10882E-02  6144   0.337E-02    0.869E-02
DAV: 173    -0.360183891511E+04   -0.66614E-03   -0.71084E-04  5248   0.221E-02    0.739E-02
DAV: 174    -0.360183881939E+04    0.95719E-04   -0.34423E-04  5760   0.865E-03    0.769E-02
DAV: 175    -0.360183883076E+04   -0.11367E-04   -0.57087E-05  5504   0.514E-03    0.756E-02
DAV: 176    -0.360183889954E+04   -0.68781E-04   -0.53999E-04  5632   0.920E-03    0.723E-02
DAV: 177    -0.360183857649E+04    0.32304E-03   -0.17035E-02  6016   0.468E-02    0.777E-02
DAV: 178    -0.360183962769E+04   -0.10512E-02   -0.66475E-04  5120   0.203E-02    0.757E-02
DAV: 179    -0.360183968021E+04   -0.52521E-04   -0.34743E-04  5760   0.113E-02    0.767E-02
DAV: 180    -0.360183952832E+04    0.15189E-03   -0.70758E-04  6016   0.921E-03    0.819E-02
DAV: 181    -0.360183934820E+04    0.18011E-03   -0.11120E-03  5760   0.110E-02    0.850E-02
DAV: 182    -0.360183781242E+04    0.15358E-02   -0.14885E-02  6016   0.424E-02    0.115E-01
DAV: 183    -0.360183869696E+04   -0.88454E-03   -0.12452E-03  5376   0.276E-02    0.934E-02
DAV: 184    -0.360183879686E+04   -0.99900E-04   -0.16095E-03  5888   0.158E-02    0.887E-02
DAV: 185    -0.360183898406E+04   -0.18720E-03   -0.11791E-03  6400   0.953E-03    0.845E-02
DAV: 186    -0.360183910975E+04   -0.12569E-03   -0.26712E-04  5760   0.854E-03    0.842E-02
DAV: 187    -0.360183864646E+04    0.46330E-03   -0.67703E-03  5760   0.310E-02    0.914E-02
DAV: 188    -0.360183895579E+04   -0.30933E-03   -0.22784E-04  5120   0.128E-02    0.869E-02
DAV: 189    -0.360183901855E+04   -0.62756E-04   -0.82993E-04  5888   0.135E-02    0.809E-02
DAV: 190    -0.360183907407E+04   -0.55524E-04   -0.53653E-05  5248   0.532E-03    0.814E-02
DAV: 191    -0.360183903524E+04    0.38830E-04   -0.14318E-04  5632   0.497E-03    0.839E-02
DAV: 192    -0.360183880485E+04    0.23040E-03   -0.35114E-03  5504   0.242E-02    0.777E-02
DAV: 193    -0.360183909490E+04   -0.29006E-03   -0.27903E-04  5120   0.122E-02    0.736E-02
DAV: 194    -0.360183916511E+04   -0.70209E-04   -0.26102E-03  5888   0.172E-02    0.679E-02
DAV: 195    -0.360183911728E+04    0.47833E-04   -0.83736E-04  5632   0.159E-02    0.701E-02
DAV: 196    -0.360183926920E+04   -0.15192E-03   -0.42823E-04  5504   0.114E-02    0.684E-02
DAV: 197    -0.360183902148E+04    0.24772E-03   -0.28726E-03  5632   0.213E-02    0.837E-02
DAV: 198    -0.360183906037E+04   -0.38895E-04   -0.69121E-04  5504   0.141E-02    0.888E-02
DAV: 199    -0.360183915426E+04   -0.93886E-04   -0.24336E-04  5632   0.785E-03    0.902E-02
DAV: 200    -0.360183911285E+04    0.41406E-04   -0.10834E-03  5504   0.996E-03    0.923E-02
DAV: 201    -0.360183884028E+04    0.27258E-03   -0.18350E-03  5888   0.163E-02    0.104E-01
DAV: 202    -0.360183846954E+04    0.37074E-03   -0.24610E-03  6016   0.154E-02    0.126E-01
DAV: 203    -0.360183860979E+04   -0.14025E-03   -0.19832E-04  5120   0.122E-02    0.122E-01
DAV: 204    -0.360183866594E+04   -0.56154E-04   -0.22431E-04  6016   0.622E-03    0.121E-01
DAV: 205    -0.360183880910E+04   -0.14316E-03   -0.10413E-03  6016   0.115E-02    0.117E-01
DAV: 206    -0.360183898264E+04   -0.17354E-03   -0.32280E-03  6016   0.188E-02    0.114E-01
DAV: 207    -0.360183907225E+04   -0.89604E-04   -0.19071E-03  5760   0.238E-02    0.123E-01
DAV: 208    -0.360183905176E+04    0.20488E-04   -0.14108E-04  5376   0.619E-03    0.120E-01
DAV: 209    -0.360183905660E+04   -0.48446E-05   -0.47842E-06  5120   0.209E-03    0.120E-01
DAV: 210    -0.360183905811E+04   -0.15062E-05   -0.10620E-05  5248   0.102E-03    0.120E-01
DAV: 211    -0.360183905890E+04   -0.79168E-06   -0.16237E-06  4992   0.554E-04
 augmentation electrons   1811.87145956867     
 soft         electrons  0.000000000000000E+000
 total        electrons   1811.87145956867     
 augmentation electrons -6.816858855682598E-002
 soft         electrons  0.000000000000000E+000
 total        electrons -6.816858855682598E-002
 augmentation electrons   1933.45581995370     
 soft         electrons  0.000000000000000E+000
 total        electrons   1933.45581995370     
 augmentation electrons   1875.93866008170     
 soft         electrons  0.000000000000000E+000
 total        electrons   1875.93866008170     
 augmentation electrons   54.7948861145547     
 soft         electrons   1757.07649797958     
 total        electrons   1811.87138409414     
 augmentation electrons   31.1100379361347     
 soft         electrons   1757.07649797958     
 total        electrons   49.9318027786893     
 translations:           0           1           0
   2 F= -.36397485E+04 E0= -.36397485E+04  d E =-.182725E+00  mag=    50.0000
 trial-energy change:   -0.182725  1 .order   -0.179322   -0.245477   -0.113167
 step:   1.6793(harm=  1.8553)  dis= 0.04303  next Energy= -3639.788040 (dE=-0.222E+00)
 bond charge predicted
       N       E                     dE             d eps       ncg     rms          rms(c)
DAV:   1    -0.360185148851E+04   -0.12430E-01   -0.78820E+00  5248   0.166E+00    0.139E+00
DAV:   2    -0.360188226672E+04   -0.30778E-01   -0.36338E-01  6144   0.369E-01    0.797E-01
DAV:   3    -0.360188181379E+04    0.45293E-03   -0.97644E-03  5888   0.784E-02    0.438E-01
DAV:   4    -0.360188138824E+04    0.42555E-03   -0.97201E-04  6784   0.207E-02    0.291E-01
DAV:   5    -0.360188109569E+04    0.29254E-03   -0.23457E-03  6784   0.329E-02    0.117E-01
DAV:   6    -0.360188126775E+04   -0.17205E-03   -0.83099E-04  6400   0.171E-02    0.418E-02
DAV:   7    -0.360188136955E+04   -0.10181E-03   -0.19802E-04  6400   0.669E-03    0.356E-02
DAV:   8    -0.360188146904E+04   -0.99485E-04   -0.22458E-04  6528   0.505E-03    0.328E-02
DAV:   9    -0.360188161295E+04   -0.14391E-03   -0.56623E-04  6528   0.813E-03    0.322E-02
DAV:  10    -0.360188172832E+04   -0.11537E-03   -0.25031E-04  6400   0.521E-03    0.319E-02
DAV:  11    -0.360188159786E+04    0.13046E-03   -0.35439E-04  6272   0.104E-02    0.330E-02
DAV:  12    -0.360188186668E+04   -0.26883E-03   -0.82041E-03  6144   0.384E-02    0.388E-02
DAV:  13    -0.360188200880E+04   -0.14212E-03   -0.13710E-02  6144   0.387E-02    0.517E-02
DAV:  14    -0.360188280230E+04   -0.79350E-03   -0.15921E-03  5248   0.316E-02    0.423E-02
DAV:  15    -0.360188293487E+04   -0.13257E-03   -0.28586E-03  6016   0.241E-02    0.483E-02
DAV:  16    -0.360188200860E+04    0.92627E-03   -0.29919E-02  6016   0.648E-02    0.766E-02
DAV:  17    -0.360188399897E+04   -0.19904E-02   -0.15576E-03  5248   0.280E-02    0.695E-02
DAV:  18    -0.360188432107E+04   -0.32210E-03   -0.20695E-04  5248   0.134E-02    0.690E-02
DAV:  19    -0.360188436842E+04   -0.47348E-04   -0.84751E-04  6400   0.121E-02    0.686E-02
DAV:  20    -0.360188449949E+04   -0.13108E-03   -0.39028E-05  5504   0.639E-03    0.698E-02
DAV:  21    -0.360188444261E+04    0.56879E-04   -0.11090E-03  5760   0.155E-02    0.730E-02
DAV:  22    -0.360188426998E+04    0.17263E-03   -0.13108E-03  6144   0.175E-02    0.931E-02
DAV:  23    -0.360188352115E+04    0.74883E-03   -0.15735E-02  6016   0.503E-02    0.111E-01
DAV:  24    -0.360188491422E+04   -0.13931E-02   -0.10958E-03  5248   0.294E-02    0.119E-01
DAV:  25    -0.360188359400E+04    0.13202E-02   -0.21174E-02  5888   0.620E-02    0.124E-01
DAV:  26    -0.360188273679E+04    0.85722E-03   -0.15562E-02  6656   0.361E-02    0.121E-01
DAV:  27    -0.360188337539E+04   -0.63861E-03   -0.15852E-03  5632   0.239E-02    0.104E-01
DAV:  28    -0.360188323472E+04    0.14067E-03   -0.11272E-03  5888   0.105E-02    0.104E-01
DAV:  29    -0.360188324852E+04   -0.13796E-04   -0.29290E-03  5760   0.273E-02    0.859E-02
DAV:  30    -0.360188346787E+04   -0.21935E-03   -0.24342E-03  5888   0.163E-02    0.805E-02
DAV:  31    -0.360188324951E+04    0.21836E-03   -0.68190E-03  5888   0.402E-02    0.984E-02
DAV:  32    -0.360188350001E+04   -0.25050E-03   -0.24207E-03  5504   0.279E-02    0.832E-02
DAV:  33    -0.360188368315E+04   -0.18314E-03   -0.84832E-04  6656   0.874E-03    0.817E-02
DAV:  34    -0.360188394119E+04   -0.25804E-03   -0.12206E-04  5120   0.971E-03    0.818E-02
DAV:  35    -0.360188399627E+04   -0.55076E-04   -0.80108E-05  6400   0.286E-03    0.809E-02
DAV:  36    -0.360188405390E+04   -0.57636E-04   -0.12149E-03  5760   0.129E-02    0.801E-02
DAV:  37    -0.360188421020E+04   -0.15630E-03   -0.57590E-05  5120   0.708E-03    0.814E-02
DAV:  38    -0.360188426115E+04   -0.50948E-04   -0.40759E-04  6016   0.812E-03    0.786E-02
DAV:  39    -0.360188436670E+04   -0.10555E-03   -0.73714E-04  5888   0.984E-03    0.721E-02
DAV:  40    -0.360188413451E+04    0.23219E-03   -0.71607E-03  5888   0.327E-02    0.749E-02
DAV:  41    -0.360188423190E+04   -0.97387E-04   -0.11268E-02  5760   0.325E-02    0.818E-02
DAV:  42    -0.360188544859E+04   -0.12167E-02   -0.13882E-03  5120   0.264E-02    0.687E-02
DAV:  43    -0.360188560723E+04   -0.15864E-03   -0.62449E-05  5504   0.633E-03    0.673E-02
DAV:  44    -0.360188563662E+04   -0.29386E-04   -0.62615E-06  5376   0.269E-03    0.677E-02
DAV:  45    -0.360188562979E+04    0.68294E-05   -0.14311E-04  6144   0.573E-03    0.683E-02
DAV:  46    -0.360188568298E+04   -0.53194E-04   -0.72158E-06  5504   0.237E-03    0.688E-02
DAV:  47    -0.360188565455E+04    0.28433E-04   -0.10900E-04  5888   0.504E-03    0.715E-02
DAV:  48    -0.360188559539E+04    0.59163E-04   -0.12940E-04  6400   0.364E-03    0.739E-02
DAV:  49    -0.360188514891E+04    0.44648E-03   -0.22492E-03  5760   0.188E-02    0.831E-02
DAV:  50    -0.360188535548E+04   -0.20657E-03   -0.10771E-04  5120   0.101E-02    0.780E-02
DAV:  51    -0.360188522590E+04    0.12958E-03   -0.40537E-04  5888   0.735E-03    0.837E-02
DAV:  52    -0.360188519642E+04    0.29474E-04   -0.14602E-04  5632   0.716E-03    0.953E-02
DAV:  53    -0.360188512459E+04    0.71834E-04   -0.20352E-04  5760   0.574E-03    0.112E-01
DAV:  54    -0.360188508269E+04    0.41899E-04   -0.43128E-04  5760   0.108E-02    0.124E-01
DAV:  55    -0.360188513965E+04   -0.56962E-04   -0.21913E-05  5504   0.300E-03    0.125E-01
DAV:  56    -0.360188517775E+04   -0.38095E-04   -0.65117E-05  6144   0.270E-03    0.124E-01
DAV:  57    -0.360188483844E+04    0.33931E-03   -0.11159E-02  5888   0.411E-02    0.116E-01
DAV:  58    -0.360188574164E+04   -0.90320E-03   -0.44928E-04  5120   0.202E-02    0.119E-01
DAV:  59    -0.360188580547E+04   -0.63835E-04   -0.15590E-05  5632   0.300E-03    0.119E-01
DAV:  60    -0.360188582068E+04   -0.15203E-04   -0.78780E-05  6144   0.334E-03    0.117E-01
DAV:  61    -0.360188581197E+04    0.87099E-05   -0.18267E-06  5120   0.952E-04    0.117E-01
DAV:  62    -0.360188572896E+04    0.83010E-04   -0.12676E-03  6144   0.160E-02    0.114E-01
DAV:  63    -0.360188580858E+04   -0.79622E-04   -0.17647E-03  6016   0.202E-02    0.125E-01
DAV:  64    -0.360188574334E+04    0.65234E-04   -0.36237E-05  5120   0.616E-03    0.124E-01
DAV:  65    -0.360188572467E+04    0.18673E-04   -0.46657E-06  5504   0.161E-03    0.124E-01
DAV:  66    -0.360188571296E+04    0.11708E-04   -0.12275E-04  6272   0.463E-03    0.126E-01
DAV:  67    -0.360188567518E+04    0.37786E-04   -0.70363E-04  6016   0.124E-02    0.129E-01
DAV:  68    -0.360188575405E+04   -0.78877E-04   -0.94423E-05  5632   0.508E-03    0.133E-01
DAV:  69    -0.360188573789E+04    0.16169E-04   -0.36892E-04  6144   0.734E-03    0.136E-01
DAV:  70    -0.360188571780E+04    0.20081E-04   -0.26732E-03  6016   0.185E-02    0.135E-01
DAV:  71    -0.360188598483E+04   -0.26702E-03   -0.32427E-04  5632   0.810E-03    0.136E-01
DAV:  72    -0.360188612096E+04   -0.13613E-03   -0.78753E-04  5888   0.992E-03    0.121E-01
DAV:  73    -0.360188631868E+04   -0.19771E-03   -0.29658E-04  5504   0.928E-03    0.115E-01
DAV:  74    -0.360188635703E+04   -0.38353E-04   -0.39272E-04  6272   0.552E-03    0.112E-01
DAV:  75    -0.360188638161E+04   -0.24581E-04   -0.63099E-05  5504   0.448E-03    0.112E-01
DAV:  76    -0.360188638844E+04   -0.68333E-05   -0.53710E-07  4736   0.581E-04    0.112E-01
DAV:  77    -0.360188638583E+04    0.26139E-05   -0.30325E-04  5888   0.709E-03    0.110E-01
DAV:  78    -0.360188644770E+04   -0.61868E-04   -0.12909E-04  5632   0.680E-03    0.112E-01
DAV:  79    -0.360188641358E+04    0.34117E-04   -0.64330E-04  5760   0.107E-02    0.108E-01
DAV:  80    -0.360188648453E+04   -0.70950E-04   -0.89749E-04  6272   0.891E-03    0.106E-01
DAV:  81    -0.360188660654E+04   -0.12201E-03   -0.42919E-05  5248   0.489E-03    0.107E-01
DAV:  82    -0.360188628877E+04    0.31777E-03   -0.79446E-03  5760   0.354E-02    0.990E-02
DAV:  83    -0.360188697303E+04   -0.68426E-03   -0.17395E-03  5504   0.277E-02    0.101E-01
DAV:  84    -0.360188684967E+04    0.12336E-03   -0.18561E-03  5760   0.156E-02    0.105E-01
DAV:  85    -0.360188675166E+04    0.98007E-04   -0.30153E-04  6016   0.717E-03    0.104E-01
DAV:  86    -0.360188669895E+04    0.52710E-04   -0.31086E-05  5120   0.511E-03    0.103E-01
DAV:  87    -0.360188634998E+04    0.34898E-03   -0.64546E-03  5888   0.328E-02    0.897E-02
DAV:  88    -0.360188677981E+04   -0.42983E-03   -0.48517E-03  5760   0.378E-02    0.948E-02
DAV:  89    -0.360188672590E+04    0.53910E-04   -0.13089E-04  5632   0.858E-03    0.959E-02
DAV:  90    -0.360188664171E+04    0.84190E-04   -0.34291E-04  6144   0.545E-03    0.101E-01
DAV:  91    -0.360188656938E+04    0.72332E-04   -0.53018E-05  6144   0.362E-03    0.100E-01
DAV:  92    -0.360188392509E+04    0.26443E-02   -0.53044E-02  6144   0.904E-02    0.833E-02
DAV:  93    -0.360188723405E+04   -0.33090E-02   -0.14543E-03  5120   0.369E-02    0.676E-02
DAV:  94    -0.360188746818E+04   -0.23414E-03   -0.13981E-04  5248   0.103E-02    0.669E-02
DAV:  95    -0.360188747870E+04   -0.10512E-04   -0.82564E-05  6400   0.366E-03    0.668E-02
DAV:  96    -0.360188745083E+04    0.27862E-04   -0.59074E-04  6016   0.883E-03    0.672E-02
DAV:  97    -0.360188713144E+04    0.31939E-03   -0.88716E-03  5888   0.369E-02    0.759E-02
DAV:  98    -0.360188753107E+04   -0.39962E-03   -0.60135E-04  5504   0.145E-02    0.727E-02
DAV:  99    -0.360188758832E+04   -0.57252E-04   -0.42963E-04  5888   0.643E-03    0.742E-02
DAV: 100    -0.360188760096E+04   -0.12638E-04   -0.19450E-04  5760   0.449E-03    0.741E-02
DAV: 101    -0.360188757259E+04    0.28369E-04   -0.66308E-06  5120   0.197E-03    0.737E-02
DAV: 102    -0.360188751717E+04    0.55414E-04   -0.36465E-04  6144   0.726E-03    0.863E-02
DAV: 103    -0.360188743957E+04    0.77601E-04   -0.29426E-05  5248   0.495E-03    0.856E-02
DAV: 104    -0.360188744669E+04   -0.71221E-05   -0.26124E-04  6016   0.607E-03    0.866E-02
DAV: 105    -0.360188737507E+04    0.71624E-04   -0.38769E-05  5760   0.343E-03    0.886E-02
DAV: 106    -0.360188733857E+04    0.36500E-04   -0.62142E-06  5376   0.159E-03    0.895E-02
DAV: 107    -0.360188579931E+04    0.15393E-02   -0.27524E-02  6144   0.657E-02    0.111E-01
DAV: 108    -0.360188687293E+04   -0.10736E-02   -0.23747E-03  5248   0.327E-02    0.920E-02
DAV: 109    -0.360188677533E+04    0.97599E-04   -0.14569E-03  5632   0.113E-02    0.929E-02
DAV: 110    -0.360188683464E+04   -0.59310E-04   -0.47961E-04  5888   0.586E-03    0.952E-02
DAV: 111    -0.360188689313E+04   -0.58489E-04   -0.20723E-04  5760   0.616E-03    0.982E-02
DAV: 112    -0.360188671517E+04    0.17796E-03   -0.39328E-03  5632   0.187E-02    0.101E-01
DAV: 113    -0.360188677622E+04   -0.61054E-04   -0.43072E-04  5760   0.601E-03    0.101E-01
DAV: 114    -0.360188680188E+04   -0.25660E-04   -0.75637E-05  5376   0.552E-03    0.102E-01
DAV: 115    -0.360188670693E+04    0.94952E-04   -0.12571E-03  5760   0.131E-02    0.983E-02
DAV: 116    -0.360188665868E+04    0.48249E-04   -0.17544E-03  6144   0.116E-02    0.969E-02
DAV: 117    -0.360188673290E+04   -0.74218E-04   -0.96652E-04  5760   0.839E-03    0.983E-02
DAV: 118    -0.360188679711E+04   -0.64212E-04   -0.34937E-04  5504   0.856E-03    0.980E-02
DAV: 119    -0.360188678964E+04    0.74731E-05   -0.13035E-04  6016   0.328E-03    0.986E-02
DAV: 120    -0.360188682840E+04   -0.38760E-04   -0.19987E-05  5760   0.243E-03    0.992E-02
DAV: 121    -0.360188685362E+04   -0.25225E-04   -0.10656E-06  4608   0.103E-03    0.993E-02
DAV: 122    -0.360188682421E+04    0.29408E-04   -0.60877E-04  5632   0.955E-03    0.996E-02
DAV: 123    -0.360188686135E+04   -0.37140E-04   -0.23031E-04  5760   0.473E-03    0.991E-02
DAV: 124    -0.360188687696E+04   -0.15609E-04   -0.23584E-04  5760   0.512E-03    0.930E-02
DAV: 125    -0.360188691619E+04   -0.39224E-04   -0.12075E-04  5760   0.352E-03    0.899E-02
DAV: 126    -0.360188695512E+04   -0.38937E-04   -0.12067E-04  5888   0.356E-03    0.885E-02
DAV: 127    -0.360188687492E+04    0.80207E-04   -0.10770E-03  5632   0.106E-02    0.772E-02
DAV: 128    -0.360188692754E+04   -0.52624E-04   -0.13731E-03  5504   0.173E-02    0.846E-02
DAV: 129    -0.360188690153E+04    0.26012E-04   -0.30483E-05  5120   0.498E-03    0.838E-02
DAV: 130    -0.360188689327E+04    0.82569E-05   -0.34152E-05  5760   0.213E-03    0.848E-02
DAV: 131    -0.360188687395E+04    0.19318E-04   -0.52236E-06  5376   0.137E-03    0.846E-02
DAV: 132    -0.360188667354E+04    0.20041E-03   -0.19428E-03  5888   0.189E-02    0.720E-02
DAV: 133    -0.360188695418E+04   -0.28063E-03   -0.27132E-03  5760   0.246E-02    0.858E-02
DAV: 134    -0.360188681215E+04    0.14203E-03   -0.19879E-03  5888   0.114E-02    0.938E-02
DAV: 135    -0.360188678510E+04    0.27049E-04   -0.95869E-05  5248   0.795E-03    0.921E-02
DAV: 136    -0.360188673788E+04    0.47214E-04   -0.97198E-05  6016   0.310E-03    0.944E-02
DAV: 137    -0.360188654615E+04    0.19173E-03   -0.60355E-03  6016   0.305E-02    0.696E-02
DAV: 138    -0.360188696365E+04   -0.41750E-03   -0.12891E-03  5504   0.218E-02    0.780E-02
DAV: 139    -0.360188696973E+04   -0.60846E-05   -0.99810E-05  6016   0.380E-03    0.806E-02
DAV: 140    -0.360188694358E+04    0.26152E-04   -0.21381E-04  6016   0.439E-03    0.832E-02
DAV: 141    -0.360188690982E+04    0.33759E-04   -0.43185E-04  6016   0.584E-03    0.865E-02
DAV: 142    -0.360188694436E+04   -0.34536E-04   -0.64742E-04  5888   0.812E-03    0.839E-02
DAV: 143    -0.360188698599E+04   -0.41632E-04   -0.74277E-05  5504   0.523E-03    0.856E-02
DAV: 144    -0.360188699516E+04   -0.91692E-05   -0.18367E-06  4992   0.113E-03    0.854E-02
DAV: 145    -0.360188698769E+04    0.74716E-05   -0.94731E-06  5376   0.105E-03    0.858E-02
DAV: 146    -0.360188700250E+04   -0.14812E-04   -0.12958E-04  5888   0.483E-03    0.845E-02
DAV: 147    -0.360188694581E+04    0.56687E-04   -0.11866E-03  6016   0.134E-02    0.856E-02
DAV: 148    -0.360188704603E+04   -0.10022E-03   -0.59051E-05  5376   0.582E-03    0.871E-02
DAV: 149    -0.360188710066E+04   -0.54633E-04   -0.28017E-05  5504   0.380E-03    0.870E-02
DAV: 150    -0.360188704111E+04    0.59553E-04   -0.18358E-04  5760   0.609E-03    0.866E-02
DAV: 151    -0.360188681643E+04    0.22468E-03   -0.23060E-03  5760   0.198E-02    0.873E-02
DAV: 152    -0.360188707494E+04   -0.25852E-03   -0.25575E-04  5632   0.852E-03    0.878E-02
DAV: 153    -0.360188702017E+04    0.54777E-04   -0.10010E-03  5632   0.116E-02    0.881E-02
DAV: 154    -0.360188724024E+04   -0.22007E-03   -0.10864E-04  5504   0.682E-03    0.875E-02
DAV: 155    -0.360188731568E+04   -0.75443E-04   -0.74983E-06  5120   0.248E-03    0.875E-02
DAV: 156    -0.360188733739E+04   -0.21711E-04   -0.32809E-06  5376   0.911E-04    0.878E-02
DAV: 157    -0.360188734833E+04   -0.10937E-04   -0.89389E-05  5888   0.350E-03    0.872E-02
DAV: 158    -0.360188726219E+04    0.86138E-04   -0.88603E-04  5760   0.129E-02    0.839E-02
DAV: 159    -0.360188734541E+04   -0.83220E-04   -0.66020E-04  6400   0.796E-03    0.807E-02
DAV: 160    -0.360188738424E+04   -0.38832E-04   -0.10120E-03  5632   0.102E-02    0.794E-02
DAV: 161    -0.360188757214E+04   -0.18790E-03   -0.15138E-04  5632   0.670E-03    0.792E-02
DAV: 162    -0.360188421979E+04    0.33523E-02   -0.63625E-02  5760   0.996E-02    0.798E-02
DAV: 163    -0.360188723261E+04   -0.30128E-02   -0.12856E-02  5760   0.690E-02    0.437E-02
DAV: 164    -0.360188753697E+04   -0.30436E-03   -0.20171E-03  6016   0.185E-02    0.410E-02
DAV: 165    -0.360188746430E+04    0.72676E-04   -0.41367E-03  5888   0.214E-02    0.412E-02
DAV: 166    -0.360188769398E+04   -0.22969E-03   -0.13652E-03  5760   0.134E-02    0.396E-02
DAV: 167    -0.360188797671E+04   -0.28272E-03   -0.83407E-04  5504   0.168E-02    0.402E-02
DAV: 168    -0.360188799016E+04   -0.13451E-04   -0.38785E-05  5248   0.464E-03    0.384E-02
DAV: 169    -0.360188798661E+04    0.35458E-05   -0.13260E-05  6272   0.184E-03    0.382E-02
DAV: 170    -0.360188800305E+04   -0.16435E-04   -0.11394E-04  5760   0.501E-03    0.397E-02
DAV: 171    -0.360188797124E+04    0.31801E-04   -0.10127E-04  5760   0.413E-03    0.396E-02
DAV: 172    -0.360188788240E+04    0.88841E-04   -0.26347E-03  5888   0.188E-02    0.291E-02
DAV: 173    -0.360188800430E+04   -0.12189E-03   -0.14429E-03  5632   0.140E-02    0.284E-02
DAV: 174    -0.360188803992E+04   -0.35619E-04   -0.12190E-04  6016   0.431E-03    0.285E-02
DAV: 175    -0.360188808298E+04   -0.43060E-04   -0.15775E-05  5376   0.346E-03    0.286E-02
DAV: 176    -0.360188808011E+04    0.28659E-05   -0.99236E-06  5504   0.127E-03    0.281E-02
DAV: 177    -0.360188761343E+04    0.46668E-03   -0.52110E-03  5760   0.315E-02    0.404E-02
DAV: 178    -0.360188805840E+04   -0.44497E-03   -0.21372E-04  5120   0.135E-02    0.381E-02
DAV: 179    -0.360188812880E+04   -0.70405E-04   -0.39416E-05  5504   0.472E-03    0.359E-02
DAV: 180    -0.360188812376E+04    0.50434E-05   -0.61507E-04  6016   0.107E-02    0.321E-02
DAV: 181    -0.360188783329E+04    0.29047E-03   -0.38013E-03  5888   0.226E-02    0.427E-02
DAV: 182    -0.360188801439E+04   -0.18110E-03   -0.54435E-04  5248   0.145E-02    0.385E-02
DAV: 183    -0.360188800427E+04    0.10125E-04   -0.21341E-04  5760   0.658E-03    0.411E-02
DAV: 184    -0.360188798541E+04    0.18861E-04   -0.14730E-04  6016   0.400E-03    0.433E-02
DAV: 185    -0.360188791509E+04    0.70311E-04   -0.54208E-04  5888   0.789E-03    0.486E-02
DAV: 186    -0.360188792199E+04   -0.68994E-05   -0.34771E-05  5120   0.572E-03    0.468E-02
DAV: 187    -0.360188790997E+04    0.12021E-04   -0.61339E-05  5888   0.341E-03    0.472E-02
DAV: 188    -0.360188784634E+04    0.63636E-04   -0.35440E-04  5888   0.900E-03    0.429E-02
DAV: 189    -0.360188790761E+04   -0.61275E-04   -0.14572E-04  6144   0.456E-03    0.403E-02
DAV: 190    -0.360188797224E+04   -0.64628E-04   -0.48138E-05  5504   0.346E-03    0.398E-02
DAV: 191    -0.360188795855E+04    0.13688E-04   -0.31925E-04  5888   0.602E-03    0.376E-02
DAV: 192    -0.360188793076E+04    0.27792E-04   -0.95582E-04  5888   0.112E-02    0.368E-02
DAV: 193    -0.360188803181E+04   -0.10105E-03   -0.51211E-04  6016   0.754E-03    0.372E-02
DAV: 194    -0.360188807172E+04   -0.39910E-04   -0.38972E-04  6272   0.559E-03    0.385E-02
DAV: 195    -0.360188813318E+04   -0.61458E-04   -0.53488E-04  5888   0.868E-03    0.397E-02
DAV: 196    -0.360188812907E+04    0.41053E-05   -0.17582E-04  6016   0.405E-03    0.397E-02
DAV: 197    -0.360188798620E+04    0.14287E-03   -0.40449E-03  5760   0.234E-02    0.393E-02
DAV: 198    -0.360188822084E+04   -0.23464E-03   -0.18540E-04  5120   0.112E-02    0.381E-02
DAV: 199    -0.360188823997E+04   -0.19122E-04   -0.84500E-06  5376   0.203E-03    0.381E-02
DAV: 200    -0.360188824493E+04   -0.49665E-05   -0.77703E-06  5504   0.103E-03    0.379E-02
DAV: 201    -0.360188825090E+04   -0.59672E-05   -0.34834E-06  5248   0.663E-04    0.379E-02
DAV: 202    -0.360188823850E+04    0.12400E-04   -0.51924E-04  5888   0.802E-03    0.364E-02
DAV: 203    -0.360188828066E+04   -0.42161E-04   -0.88553E-05  5504   0.412E-03    0.350E-02
DAV: 204    -0.360188829041E+04   -0.97542E-05   -0.28492E-05  5504   0.178E-03    0.348E-02
DAV: 205    -0.360188830440E+04   -0.13987E-04   -0.51829E-05  5888   0.374E-03    0.356E-02
DAV: 206    -0.360188829450E+04    0.99028E-05   -0.11376E-06  4864   0.112E-03    0.353E-02
DAV: 207    -0.360188828656E+04    0.79410E-05   -0.44664E-05  5888   0.246E-03    0.369E-02
DAV: 208    -0.360188829407E+04   -0.75158E-05   -0.13069E-05  5504   0.151E-03    0.377E-02
DAV: 209    -0.360188829297E+04    0.11078E-05   -0.43918E-06  4992   0.126E-03    0.373E-02
DAV: 210    -0.360188829515E+04   -0.21799E-05   -0.10715E-05  4864   0.132E-03    0.376E-02
DAV: 211    -0.360188829192E+04    0.32257E-05   -0.12012E-04  6016   0.378E-03    0.385E-02
DAV: 212    -0.360188828001E+04    0.11906E-04   -0.28867E-05  5760   0.300E-03    0.378E-02
DAV: 213    -0.360188828172E+04   -0.17102E-05   -0.84899E-06  4992   0.121E-03    0.384E-02
DAV: 214    -0.360188827773E+04    0.39990E-05   -0.68302E-05  5632   0.258E-03    0.388E-02
DAV: 215    -0.360188827670E+04    0.10222E-05   -0.14868E-05  5120   0.146E-03    0.384E-02
DAV: 216    -0.360188828106E+04   -0.43564E-05   -0.44671E-06  4608   0.885E-04    0.384E-02
DAV: 217    -0.360188828489E+04   -0.38304E-05   -0.17511E-04  6016   0.431E-03    0.370E-02
DAV: 218    -0.360188828789E+04   -0.30034E-05   -0.32232E-05  5760   0.299E-03    0.371E-02
DAV: 219    -0.360188829159E+04   -0.36945E-05   -0.34120E-05  5248   0.184E-03    0.368E-02
DAV: 220    -0.360188831068E+04   -0.19091E-04   -0.36014E-05  5760   0.329E-03    0.373E-02
DAV: 221    -0.360188830591E+04    0.47635E-05   -0.19470E-05  5504   0.142E-03    0.375E-02
DAV: 222    -0.360188798320E+04    0.32271E-03   -0.56609E-03  5760   0.300E-02    0.482E-02
DAV: 223    -0.360188804724E+04   -0.64041E-04   -0.19293E-03  5760   0.155E-02    0.477E-02
DAV: 224    -0.360188806713E+04   -0.19884E-04   -0.80151E-04  5760   0.103E-02    0.459E-02
DAV: 225    -0.360188804689E+04    0.20239E-04   -0.35440E-04  5760   0.669E-03    0.456E-02
DAV: 226    -0.360188800579E+04    0.41094E-04   -0.49660E-05  5120   0.610E-03    0.437E-02
DAV: 227    -0.360188772006E+04    0.28574E-03   -0.37463E-03  5632   0.242E-02    0.417E-02
DAV: 228    -0.360188797422E+04   -0.25417E-03   -0.35546E-04  5504   0.115E-02    0.364E-02
DAV: 229    -0.360188799828E+04   -0.24058E-04   -0.27557E-04  6016   0.609E-03    0.333E-02
DAV: 230    -0.360188803587E+04   -0.37585E-04   -0.27360E-04  5376   0.569E-03    0.306E-02
DAV: 231    -0.360188808183E+04   -0.45963E-04   -0.13430E-04  5888   0.454E-03    0.288E-02
DAV: 232    -0.360188810368E+04   -0.21847E-04   -0.31731E-04  5504   0.638E-03    0.257E-02
DAV: 233    -0.360188813713E+04   -0.33457E-04   -0.31953E-04  5888   0.591E-03    0.244E-02
DAV: 234    -0.360188816790E+04   -0.30768E-04   -0.11921E-04  5760   0.353E-03    0.236E-02
DAV: 235    -0.360188816203E+04    0.58674E-05   -0.32475E-04  5888   0.605E-03    0.229E-02
DAV: 236    -0.360188818350E+04   -0.21469E-04   -0.24250E-04  5504   0.654E-03    0.244E-02
DAV: 237    -0.360188820218E+04   -0.18680E-04   -0.54196E-05  5504   0.456E-03    0.233E-02
DAV: 238    -0.360188821038E+04   -0.81984E-05   -0.89604E-05  5632   0.319E-03    0.244E-02
DAV: 239    -0.360188819222E+04    0.18164E-04   -0.34474E-04  5888   0.717E-03    0.240E-02
DAV: 240    -0.360188822618E+04   -0.33961E-04   -0.43375E-05  5888   0.322E-03    0.239E-02
DAV: 241    -0.360188824232E+04   -0.16146E-04   -0.49875E-06  5248   0.158E-03    0.239E-02
DAV: 242    -0.360188819642E+04    0.45908E-04   -0.96660E-04  5632   0.134E-02    0.316E-02
DAV: 243    -0.360188820657E+04   -0.10158E-04   -0.43678E-05  5120   0.588E-03    0.285E-02
DAV: 244    -0.360188820452E+04    0.20531E-05   -0.32813E-05  5888   0.230E-03    0.288E-02
DAV: 245    -0.360188818246E+04    0.22060E-04   -0.13571E-04  5888   0.597E-03    0.276E-02
DAV: 246    -0.360188819499E+04   -0.12531E-04   -0.13365E-04  6016   0.401E-03    0.261E-02
DAV: 247    -0.360188730868E+04    0.88631E-03   -0.14103E-02  5760   0.477E-02    0.388E-02
DAV: 248    -0.360188834123E+04   -0.10326E-02   -0.14490E-03  5504   0.310E-02    0.135E-02
DAV: 249    -0.360188834532E+04   -0.40867E-05   -0.21269E-04  5504   0.712E-03    0.120E-02
DAV: 250    -0.360188832324E+04    0.22076E-04   -0.59164E-04  6144   0.899E-03    0.130E-02
DAV: 251    -0.360188838132E+04   -0.58079E-04   -0.68208E-05  5248   0.585E-03    0.109E-02
DAV: 252    -0.360188836874E+04    0.12582E-04   -0.43317E-04  5888   0.785E-03    0.117E-02
DAV: 253    -0.360188839781E+04   -0.29074E-04   -0.72594E-05  5376   0.558E-03    0.111E-02
DAV: 254    -0.360188839850E+04   -0.68297E-06   -0.16194E-05  6144   0.136E-03    0.116E-02
DAV: 255    -0.360188839582E+04    0.26815E-05   -0.18401E-05  5888   0.159E-03    0.131E-02
DAV: 256    -0.360188839756E+04   -0.17422E-05   -0.68346E-06  5120   0.108E-03    0.129E-02
DAV: 257    -0.360188839492E+04    0.26411E-05   -0.40170E-05  5504   0.191E-03    0.142E-02
DAV: 258    -0.360188839719E+04   -0.22729E-05   -0.57356E-06  5632   0.104E-03    0.141E-02
DAV: 259    -0.360188839214E+04    0.50548E-05   -0.36502E-05  5632   0.190E-03    0.157E-02
DAV: 260    -0.360188838416E+04    0.79803E-05   -0.73104E-05  5888   0.291E-03    0.161E-02
DAV: 261    -0.360188837777E+04    0.63878E-05   -0.10843E-04  5888   0.276E-03    0.155E-02
DAV: 262    -0.360188835813E+04    0.19639E-04   -0.38716E-04  5504   0.513E-03    0.159E-02
DAV: 263    -0.360188836898E+04   -0.10848E-04   -0.32164E-05  5376   0.309E-03    0.161E-02
DAV: 264    -0.360188836944E+04   -0.46150E-06   -0.35795E-05  5632   0.183E-03    0.161E-02
DAV: 265    -0.360188836184E+04    0.76021E-05   -0.16207E-04  5376   0.299E-03    0.177E-02
DAV: 266    -0.360188836840E+04   -0.65639E-05   -0.11811E-05  5120   0.193E-03    0.174E-02
DAV: 267    -0.360188833482E+04    0.33580E-04   -0.62172E-04  5760   0.106E-02    0.140E-02
DAV: 268    -0.360188837552E+04   -0.40702E-04   -0.16055E-04  5760   0.510E-03    0.128E-02
DAV: 269    -0.360188840313E+04   -0.27611E-04   -0.99048E-05  5504   0.595E-03    0.132E-02
DAV: 270    -0.360188840185E+04    0.12862E-05   -0.12667E-05  5504   0.216E-03    0.129E-02
DAV: 271    -0.360188839502E+04    0.68301E-05   -0.10709E-04  5632   0.379E-03    0.130E-02
DAV: 272    -0.360188839986E+04   -0.48445E-05   -0.92716E-05  5760   0.348E-03    0.136E-02
DAV: 273    -0.360188841597E+04   -0.16113E-04   -0.39150E-05  5504   0.359E-03    0.138E-02
DAV: 274    -0.360188841031E+04    0.56630E-05   -0.87836E-05  5760   0.294E-03    0.133E-02
DAV: 275    -0.360188841394E+04   -0.36321E-05   -0.30678E-06  5120   0.126E-03    0.131E-02
DAV: 276    -0.360188841400E+04   -0.59867E-07   -0.20832E-05  5504   0.154E-03    0.134E-02
DAV: 277    -0.360188840791E+04    0.60936E-05   -0.93159E-05  6016   0.381E-03    0.128E-02
DAV: 278    -0.360188840519E+04    0.27216E-05   -0.15935E-04  5632   0.437E-03    0.137E-02
DAV: 279    -0.360188839570E+04    0.94876E-05   -0.17068E-04  5376   0.298E-03    0.137E-02
DAV: 280    -0.360188840057E+04   -0.48746E-05   -0.78941E-05  5760   0.266E-03    0.136E-02
DAV: 281    -0.360188840171E+04   -0.11394E-05   -0.82869E-05  5632   0.251E-03    0.139E-02
DAV: 282    -0.360188824407E+04    0.15764E-03   -0.39739E-03  5632   0.216E-02    0.178E-02
DAV: 283    -0.360188843946E+04   -0.19539E-03   -0.46357E-04  5504   0.140E-02    0.120E-02
DAV: 284    -0.360188843918E+04    0.27403E-06   -0.20440E-05  5376   0.143E-03    0.118E-02
DAV: 285    -0.360188843830E+04    0.88318E-06   -0.13640E-05  5504   0.156E-03    0.116E-02
DAV: 286    -0.360188843842E+04   -0.12042E-06   -0.35440E-05  5376   0.218E-03    0.117E-02
DAV: 287    -0.360188841548E+04    0.22943E-04   -0.50066E-04  5760   0.764E-03    0.122E-02
DAV: 288    -0.360188845691E+04   -0.41432E-04   -0.38725E-05  5376   0.416E-03    0.116E-02
DAV: 289    -0.360188846139E+04   -0.44760E-05   -0.27242E-05  5504   0.186E-03    0.113E-02
DAV: 290    -0.360188846661E+04   -0.52267E-05   -0.12874E-05  5504   0.129E-03    0.111E-02
DAV: 291    -0.360188846812E+04   -0.15096E-05   -0.32469E-05  5376   0.199E-03    0.109E-02
DAV: 292    -0.360188843232E+04    0.35803E-04   -0.77509E-04  5760   0.101E-02    0.123E-02
DAV: 293    -0.360188847736E+04   -0.45041E-04   -0.16149E-04  5504   0.534E-03    0.107E-02
DAV: 294    -0.360188850373E+04   -0.26370E-04   -0.13024E-05  5120   0.285E-03    0.958E-03
DAV: 295    -0.360188850716E+04   -0.34303E-05   -0.88465E-07  4736   0.871E-04    0.954E-03
DAV: 296    -0.360188850193E+04    0.52346E-05   -0.28662E-05  5504   0.256E-03    0.978E-03
DAV: 297    -0.360188850431E+04   -0.23822E-05   -0.18936E-05  5504   0.248E-03    0.964E-03
DAV: 298    -0.360188847779E+04    0.26520E-04   -0.26471E-04  5632   0.695E-03    0.110E-02
DAV: 299    -0.360188849691E+04   -0.19119E-04   -0.41776E-05  5760   0.331E-03    0.102E-02
DAV: 300    -0.360188850040E+04   -0.34973E-05   -0.13958E-05  5376   0.172E-03    0.102E-02
DAV: 301    -0.360188850149E+04   -0.10857E-05   -0.13553E-05  5248   0.118E-03    0.992E-03
DAV: 302    -0.360188848338E+04    0.18111E-04   -0.23560E-04  5504   0.523E-03    0.108E-02
DAV: 303    -0.360188848841E+04   -0.50293E-05   -0.69550E-05  5632   0.275E-03    0.108E-02
DAV: 304    -0.360188849375E+04   -0.53449E-05   -0.10694E-05  5376   0.197E-03    0.105E-02
DAV: 305    -0.360188849624E+04   -0.24828E-05   -0.16385E-06  5120   0.108E-03    0.105E-02
DAV: 306    -0.360188849664E+04   -0.40873E-06   -0.12027E-06  4608   0.541E-04
 augmentation electrons   1811.87247037396     
 soft         electrons  0.000000000000000E+000
 total        electrons   1811.87247037396     
 augmentation electrons -6.832238457751241E-002
 soft         electrons  0.000000000000000E+000
 total        electrons -6.832238457751241E-002
 augmentation electrons   1939.83650815749     
 soft         electrons  0.000000000000000E+000
 total        electrons   1939.83650815749     
 augmentation electrons   1882.31934828549     
 soft         electrons  0.000000000000000E+000
 total        electrons   1882.31934828549     
 augmentation electrons   54.8075834519553     
 soft         electrons   1757.06481541100     
 total        electrons   1811.87239886296     
 augmentation electrons   31.1430743501854     
 soft         electrons   1757.06481541100     
 total        electrons   49.9316493303077     
 translations:           0           1           0
   3 F= -.36398050E+04 E0= -.36398050E+04  d E =-.239223E+00  mag=    50.0000
[...]
 total        electrons   1811.82899529388     
 augmentation electrons -6.511799104235803E-002
 soft         electrons  0.000000000000000E+000
 total        electrons -6.511799104235803E-002
 augmentation electrons   1950.90941043205     
 soft         electrons  0.000000000000000E+000
 total        electrons   1950.90941043205     
 augmentation electrons   1893.39225056005     
 soft         electrons  0.000000000000000E+000
 total        electrons   1893.39225056005     
 augmentation electrons   54.7661214223315     
 soft         electrons   1757.06280771452     
 total        electrons   1811.82892913685     
 augmentation electrons   31.1901520080738     
 soft         electrons   1757.06280771452     
 total        electrons   49.9348555272744     
 translations:           0           1           0
 139 F= -.36401650E+04 E0= -.36401650E+04  d E =-.139186E-02  mag=    50.0000
 curvature:  -1.07 expect dE=-0.274E-02 dE for cont linesearch -0.128E-04
 trial: gam= 0.68901 g(F)=  0.256E-02 g(S)=  0.000E+00 ort = 0.469E-03 (trialstep = 0.310E+00)
 search vector abs. value=  0.120E-01
 bond charge predicted
       N       E                     dE             d eps       ncg     rms          rms(c)
DAV:   1    -0.360224856139E+04   -0.18671E-03   -0.69767E-02  5632   0.346E-01    0.115E-01
DAV:   2    -0.360224894830E+04   -0.38692E-03   -0.38270E-03  5376   0.487E-02    0.572E-02
DAV:   3    -0.360224896260E+04   -0.14300E-04   -0.13894E-04  5248   0.114E-02    0.314E-02
DAV:   4    -0.360224895897E+04    0.36382E-05   -0.12883E-05  6400   0.381E-03    0.193E-02
DAV:   5    -0.360224895821E+04    0.76034E-06   -0.97284E-06  6272   0.326E-03
 augmentation electrons   1811.82683397854     
 soft         electrons  0.000000000000000E+000
 total        electrons   1811.82683397854     
 augmentation electrons -6.524625052564723E-002
 soft         electrons  0.000000000000000E+000
 total        electrons -6.524625052564723E-002
 augmentation electrons   1951.47581619986     
 soft         electrons  0.000000000000000E+000
 total        electrons   1951.47581619986     
 augmentation electrons   1893.95865632786     
 soft         electrons  0.000000000000000E+000
 total        electrons   1893.95865632786     
 augmentation electrons   54.7636408550839     
 soft         electrons   1757.06312708257     
 total        electrons   1811.82676793766     
 augmentation electrons   31.1899204532157     
 soft         electrons   1757.06312708257     
 total        electrons   49.9347273734062     
 translations:           0           1           0
 140 F= -.36401657E+04 E0= -.36401657E+04  d E =-.744402E-03  mag=    50.0000
 trial-energy change:   -0.000744  1 .order   -0.000659   -0.000894   -0.000423
 step:   0.4216(harm=  0.5878)  dis= 0.00092  next Energy= -3640.165777 (dE=-0.825E-03)
 bond charge predicted
       N       E                     dE             d eps       ncg     rms          rms(c)
DAV:   1    -0.360224900384E+04   -0.44874E-04   -0.91396E-03  5632   0.125E-01    0.416E-02
DAV:   2    -0.360224905484E+04   -0.51000E-04   -0.50369E-04  5632   0.177E-02    0.207E-02
DAV:   3    -0.360224905660E+04   -0.17649E-05   -0.18945E-05  5760   0.419E-03    0.115E-02
DAV:   4    -0.360224905639E+04    0.21436E-06   -0.29819E-06  5888   0.145E-03
 augmentation electrons   1811.82613325558     
 soft         electrons  0.000000000000000E+000
 total        electrons   1811.82613325558     
 augmentation electrons -6.521617804699781E-002
 soft         electrons  0.000000000000000E+000
 total        electrons -6.521617804699781E-002
 augmentation electrons   1951.68415348781     
 soft         electrons  0.000000000000000E+000
 total        electrons   1951.68415348781     
 augmentation electrons   1894.16699361581     
 soft         electrons  0.000000000000000E+000
 total        electrons   1894.16699361581     
 augmentation electrons   54.7628383490702     
 soft         electrons   1757.06322891246     
 total        electrons   1811.82606726153     
 augmentation electrons   31.1899162768362     
 soft         electrons   1757.06322891246     
 total        electrons   49.9347574864112     
 translations:           0           1           0
 141 F= -.36401659E+04 E0= -.36401659E+04  d E =-.904492E-03  mag=    50.0000
 curvature:  -0.78 expect dE=-0.142E-02 dE for cont linesearch -0.536E-04
 ZBRENT: increasing intervall
 opt :   0.6453  next Energy= -3640.165956 (dE=-0.100E-02)
 bond charge predicted
       N       E                     dE             d eps       ncg     rms          rms(c)
DAV:   1    -0.360224887392E+04    0.18268E-03   -0.36124E-02  5632   0.250E-01    0.826E-02
DAV:   2    -0.360224907595E+04   -0.20203E-03   -0.19860E-03  5632   0.350E-02    0.411E-02
DAV:   3    -0.360224908371E+04   -0.77652E-05   -0.72405E-05  5632   0.818E-03    0.226E-02
DAV:   4    -0.360224908229E+04    0.14260E-05   -0.73960E-06  6784   0.267E-03    0.140E-02
DAV:   5    -0.360224908234E+04   -0.50539E-07   -0.88646E-06  5888   0.240E-03
 augmentation electrons   1811.82462145154     
 soft         electrons  0.000000000000000E+000
 total        electrons   1811.82462145154     
 augmentation electrons -6.534650943259124E-002
 soft         electrons  0.000000000000000E+000
 total        electrons -6.534650943259124E-002
 augmentation electrons   1952.10699040473     
 soft         electrons  0.000000000000000E+000
 total        electrons   1952.10699040473     
 augmentation electrons   1894.58983053273     
 soft         electrons  0.000000000000000E+000
 total        electrons   1894.58983053273     
 augmentation electrons   54.7611057025834     
 soft         electrons   1757.06344985700     
 total        electrons   1811.82455555959     
 augmentation electrons   31.1897150241909     
 soft         electrons   1757.06344985700     
 total        electrons   49.9346272397910     
 translations:           0           1           0
 142 F= -.36401660E+04 E0= -.36401660E+04  d E =-.104532E-02  mag=    50.0000
 curvature:  -1.45 expect dE=-0.540E-02 dE for cont linesearch -0.396E-05
 trial: gam= 1.59436 g(F)=  0.372E-02 g(S)=  0.000E+00 ort =-0.181E-03 (trialstep = 0.134E+00)
 search vector abs. value=  0.335E-01
 bond charge predicted
       N       E                     dE             d eps       ncg     rms          rms(c)
DAV:   1    -0.360224913993E+04   -0.57640E-04   -0.35251E-02  5760   0.252E-01    0.872E-02
DAV:   2    -0.360224936234E+04   -0.22241E-03   -0.21476E-03  5376   0.353E-02    0.423E-02
DAV:   3    -0.360224937259E+04   -0.10255E-04   -0.77419E-05  5120   0.834E-03    0.223E-02
DAV:   4    -0.360224937145E+04    0.11446E-05   -0.80787E-06  6272   0.254E-03    0.144E-02
DAV:   5    -0.360224937156E+04   -0.11055E-06   -0.10400E-05  6016   0.251E-03    0.467E-03
DAV:   6    -0.360224937231E+04   -0.74755E-06   -0.39335E-06  5632   0.102E-03
 augmentation electrons   1811.82257201074     
 soft         electrons  0.000000000000000E+000
 total        electrons   1811.82257201074     
 augmentation electrons -6.541957593729683E-002
 soft         electrons  0.000000000000000E+000
 total        electrons -6.541957593729683E-002
 augmentation electrons   1952.74086021353     
 soft         electrons  0.000000000000000E+000
 total        electrons   1952.74086021353     
 augmentation electrons   1895.22370034153     
 soft         electrons  0.000000000000000E+000
 total        electrons   1895.22370034153     
 augmentation electrons   54.7589700161005     
 soft         electrons   1757.06353616330     
 total        electrons   1811.82250617940     
 augmentation electrons   31.1895910034920     
 soft         electrons   1757.06353616330     
 total        electrons   49.9345542573892     
 translations:           0           1           0
 143 F= -.36401664E+04 E0= -.36401664E+04  d E =-.428052E-03  mag=    50.0000
 trial-energy change:   -0.000428  1 .order   -0.000402   -0.000461   -0.000342
 step:   0.5185(harm=  0.5185)  dis= 0.00178  next Energy= -3640.166888 (dE=-0.890E-03)
 bond charge predicted
       N       E                     dE             d eps       ncg     rms          rms(c)
DAV:   1    -0.360224767645E+04    0.16951E-02   -0.28789E-01  5760   0.721E-01    0.249E-01
DAV:   2    -0.360224948017E+04   -0.18037E-02   -0.17519E-02  5120   0.101E-01    0.121E-01
DAV:   3    -0.360224957293E+04   -0.92761E-04   -0.62688E-04  5120   0.235E-02    0.636E-02
DAV:   4    -0.360224956055E+04    0.12380E-04   -0.53143E-05  6016   0.718E-03    0.408E-02
DAV:   5    -0.360224955640E+04    0.41483E-05   -0.32143E-05  6144   0.681E-03    0.121E-02
DAV:   6    -0.360224955803E+04   -0.16283E-05   -0.99733E-06  6784   0.256E-03    0.412E-03
DAV:   7    -0.360224955865E+04   -0.62252E-06   -0.36941E-06  5120   0.925E-04
 augmentation electrons   1811.81690782035     
 soft         electrons  0.000000000000000E+000
 total        electrons   1811.81690782035     
 augmentation electrons -6.561688140714834E-002
 soft         electrons  0.000000000000000E+000
 total        electrons -6.561688140714834E-002
 augmentation electrons   1954.59174474073     
 soft         electrons  0.000000000000000E+000
 total        electrons   1954.59174474073     
 augmentation electrons   1897.07458486873     
 soft         electrons  0.000000000000000E+000
 total        electrons   1897.07458486873     
 augmentation electrons   54.7530182186560     
 soft         electrons   1757.06382401577     
 total        electrons   1811.81684223442     
 augmentation electrons   31.1892414916869     
 soft         electrons   1757.06382401577     
 total        electrons   49.9343572241613     
 translations:           0           1           0
 144 F= -.36401670E+04 E0= -.36401670E+04  d E =-.100986E-02  mag=    50.0000
 curvature:  -2.53 expect dE=-0.935E-02 dE for cont linesearch -0.477E-06
 trial: gam= 0.57237 g(F)=  0.369E-02 g(S)=  0.000E+00 ort = 0.795E-04 (trialstep = 0.211E+00)
 search vector abs. value=  0.148E-01
 bond charge predicted
       N       E                     dE             d eps       ncg     rms          rms(c)
DAV:   1    -0.360224975681E+04   -0.19878E-03   -0.41322E-02  5632   0.264E-01    0.871E-02
DAV:   2    -0.360224998231E+04   -0.22550E-03   -0.22655E-03  5632   0.383E-02    0.440E-02
DAV:   3    -0.360224998818E+04   -0.58675E-05   -0.80695E-05  5632   0.872E-03    0.246E-02
DAV:   4    -0.360224998606E+04    0.21225E-05   -0.12833E-05  6656   0.327E-03    0.149E-02
DAV:   5    -0.360224998653E+04   -0.46843E-06   -0.15643E-05  6528   0.274E-03    0.493E-03
DAV:   6    -0.360224998764E+04   -0.11131E-05   -0.57575E-06  5504   0.113E-03    0.300E-03
DAV:   7    -0.360224998860E+04   -0.95584E-06   -0.50253E-06  4864   0.586E-04
 augmentation electrons   1811.81507490731     
 soft         electrons  0.000000000000000E+000
 total        electrons   1811.81507490731     
 augmentation electrons -6.564742003700716E-002
 soft         electrons  0.000000000000000E+000
 total        electrons -6.564742003700716E-002
 augmentation electrons   1955.17423700672     
 soft         electrons  0.000000000000000E+000
 total        electrons   1955.17423700672     
 augmentation electrons   1897.65707713472     
 soft         electrons  0.000000000000000E+000
 total        electrons   1897.65707713472     
 augmentation electrons   54.7512763123511     
 soft         electrons   1757.06373305212     
 total        electrons   1811.81500936447     
 augmentation electrons   31.1891851038944     
 soft         electrons   1757.06373305212     
 total        electrons   49.9343267845122     
 translations:           0           1           0
 145 F= -.36401676E+04 E0= -.36401676E+04  d E =-.598097E-03  mag=    50.0000
 trial-energy change:   -0.000598  1 .order   -0.000579   -0.000789   -0.000369
 step:   0.3409(harm=  0.3970)  dis= 0.00075  next Energy= -3640.167723 (dE=-0.716E-03)
 bond charge predicted
       N       E                     dE             d eps       ncg     rms          rms(c)
DAV:   1    -0.360224996130E+04    0.26343E-04   -0.15584E-02  5632   0.162E-01    0.536E-02
DAV:   2    -0.360225004699E+04   -0.85691E-04   -0.85773E-04  5632   0.236E-02    0.271E-02
DAV:   3    -0.360225004971E+04   -0.27228E-05   -0.32421E-05  5760   0.539E-03    0.153E-02
DAV:   4    -0.360225004962E+04    0.92943E-07   -0.86325E-06  6784   0.210E-03
 augmentation electrons   1811.81389262387     
 soft         electrons  0.000000000000000E+000
 total        electrons   1811.81389262387     
 augmentation electrons -6.569726934987649E-002
 soft         electrons  0.000000000000000E+000
 total        electrons -6.569726934987649E-002
 augmentation electrons   1955.53506460788     
 soft         electrons  0.000000000000000E+000
 total        electrons   1955.53506460788     
 augmentation electrons   1898.01790473588     
 soft         electrons  0.000000000000000E+000
 total        electrons   1898.01790473588     
 augmentation electrons   54.7501505882545     
 soft         electrons   1757.06367652605     
 total        electrons   1811.81382711430     
 augmentation electrons   31.1891173490217     
 soft         electrons   1757.06367652605     
 total        electrons   49.9342769988370     
 translations:           0           1           0
 146 F= -.36401678E+04 E0= -.36401678E+04  d E =-.762269E-03  mag=    50.0000
 curvature:  -0.71 expect dE=-0.127E-02 dE for cont linesearch -0.168E-04
 ZBRENT: increasing intervall
 opt :   0.6003  next Energy= -3640.167622 (dE=-0.615E-03)
 bond charge predicted
       N       E                     dE             d eps       ncg     rms          rms(c)
DAV:   1    -0.360224937885E+04    0.67086E-03   -0.61870E-02  5632   0.324E-01    0.106E-01
DAV:   2    -0.360224971732E+04   -0.33848E-03   -0.33975E-03  5632   0.468E-02    0.537E-02
DAV:   3    -0.360224972804E+04   -0.10714E-04   -0.12355E-04  5760   0.106E-02    0.302E-02
DAV:   4    -0.360224972529E+04    0.27435E-05   -0.16745E-05  6912   0.377E-03    0.185E-02
DAV:   5    -0.360224972613E+04   -0.83340E-06   -0.24267E-05  6528   0.332E-03    0.622E-03
DAV:   6    -0.360224972785E+04   -0.17254E-05   -0.90969E-06  5504   0.137E-03    0.373E-03
DAV:   7    -0.360224972927E+04   -0.14129E-05   -0.69260E-06  5248   0.679E-04    0.347E-03
DAV:   8    -0.360224973109E+04   -0.18274E-05   -0.13821E-05  5120   0.775E-04    0.355E-03
DAV:   9    -0.360224973159E+04   -0.49471E-06   -0.62118E-07  4608   0.495E-04
 augmentation electrons   1811.81154379079     
 soft         electrons  0.000000000000000E+000
 total        electrons   1811.81154379079     
 augmentation electrons -6.575022081289167E-002
 soft         electrons  0.000000000000000E+000
 total        electrons -6.575022081289167E-002
 augmentation electrons   1956.26317516991     
 soft         electrons  0.000000000000000E+000
 total        electrons   1956.26317516991     
 augmentation electrons   1898.74601529791     
 soft         electrons  0.000000000000000E+000
 total        electrons   1898.74601529791     
 augmentation electrons   54.7479217824369     
 soft         electrons   1757.06355658075     
 total        electrons   1811.81147836319     
 augmentation electrons   31.1890379956181     
 soft         electrons   1757.06355658075     
 total        electrons   49.9342241812265     
 translations:           0           1           0
 147 F= -.36401677E+04 E0= -.36401677E+04  d E =-.649185E-03  mag=    50.0000
 curvature:   6.27 expect dE= 0.361E-01 dE for cont linesearch  0.124E-02
 ZBRENT: bracketing found
 ZBRENT: interpolating
 opt :   0.4074  next Energy= -3640.167789 (dE=-0.782E-03)
 bond charge predicted
       N       E                     dE             d eps       ncg     rms          rms(c)
DAV:   1    -0.360224984321E+04   -0.11212E-03   -0.34378E-02  5632   0.241E-01    0.794E-02
DAV:   2    -0.360225003136E+04   -0.18815E-03   -0.18888E-03  5632   0.350E-02    0.403E-02
DAV:   3    -0.360225003775E+04   -0.63903E-05   -0.70756E-05  5248   0.798E-03    0.227E-02
DAV:   4    -0.360225003695E+04    0.80605E-06   -0.14538E-05  6784   0.302E-03    0.140E-02
DAV:   5    -0.360225003876E+04   -0.18174E-05   -0.27771E-05  6400   0.277E-03    0.537E-03
DAV:   6    -0.360225004093E+04   -0.21690E-05   -0.10991E-05  5632   0.122E-03    0.404E-03
DAV:   7    -0.360225004280E+04   -0.18693E-05   -0.88826E-06  5120   0.676E-04    0.394E-03
DAV:   8    -0.360225004478E+04   -0.19750E-05   -0.10988E-05  5248   0.619E-04    0.401E-03
DAV:   9    -0.360225004337E+04    0.14047E-05   -0.49212E-06  5120   0.941E-04    0.397E-03
DAV:  10    -0.360225004287E+04    0.50569E-06   -0.74364E-07  4224   0.169E-04
 augmentation electrons   1811.81325074520     
 soft         electrons  0.000000000000000E+000
 total        electrons   1811.81325074520     
 augmentation electrons -6.570407253015045E-002
 soft         electrons  0.000000000000000E+000
 total        electrons -6.570407253015045E-002
 augmentation electrons   1955.72101479665     
 soft         electrons  0.000000000000000E+000
 total        electrons   1955.72101479665     
 augmentation electrons   1898.20385492465     
 soft         electrons  0.000000000000000E+000
 total        electrons   1898.20385492465     
 augmentation electrons   54.7495432165344     
 soft         electrons   1757.06364203785     
 total        electrons   1811.81318525438     
 augmentation electrons   31.1891001149695     
 soft         electrons   1757.06364203785     
 total        electrons   49.9342702295004     
 translations:           0           1           0
 148 F= -.36401678E+04 E0= -.36401678E+04  d E =-.808448E-03  mag=    50.0000
 curvature:  -0.10 expect dE=-0.234E-03 dE for cont linesearch -0.772E-09
 trial: gam= 0.63795 g(F)=  0.236E-02 g(S)=  0.000E+00 ort = 0.107E-04 (trialstep = 0.250E+00)
 search vector abs. value=  0.838E-02
 bond charge predicted
       N       E                     dE             d eps       ncg     rms          rms(c)
DAV:   1    -0.360225016517E+04   -0.12180E-03   -0.32263E-02  5376   0.227E-01    0.804E-02
DAV:   2    -0.360225034102E+04   -0.17585E-03   -0.16291E-03  5376   0.329E-02    0.438E-02
DAV:   3    -0.360225035802E+04   -0.16993E-04   -0.61947E-05  5120   0.781E-03    0.216E-02
DAV:   4    -0.360225035761E+04    0.40732E-06   -0.14199E-05  6912   0.286E-03    0.142E-02
DAV:   5    -0.360225035981E+04   -0.21960E-05   -0.29008E-05  6272   0.277E-03    0.569E-03
DAV:   6    -0.360225036185E+04   -0.20430E-05   -0.10738E-05  5504   0.121E-03    0.456E-03
DAV:   7    -0.360225036436E+04   -0.25110E-05   -0.17574E-05  5248   0.886E-04    0.481E-03
DAV:   8    -0.360225036494E+04   -0.58160E-06   -0.93592E-07  4864   0.550E-04
 augmentation electrons   1811.81221737852     
 soft         electrons  0.000000000000000E+000
 total        electrons   1811.81221737852     
 augmentation electrons -6.577699686214318E-002
 soft         electrons  0.000000000000000E+000
 total        electrons -6.577699686214318E-002
 augmentation electrons   1955.98237553430     
 soft         electrons  0.000000000000000E+000
 total        electrons   1955.98237553430     
 augmentation electrons   1898.46521566230     
 soft         electrons  0.000000000000000E+000
 total        electrons   1898.46521566230     
 augmentation electrons   54.7485775029216     
 soft         electrons   1757.06357440517     
 total        electrons   1811.81215190809     
 augmentation electrons   31.1890915542199     
 soft         electrons   1757.06357440517     
 total        electrons   49.9341973968200     
 translations:           0           1           0
 149 F= -.36401683E+04 E0= -.36401683E+04  d E =-.436839E-03  mag=    50.0000
 trial-energy change:   -0.000437  1 .order   -0.000456   -0.000593   -0.000320
 step:   0.5444(harm=  0.5444)  dis= 0.00088  next Energy= -3640.168460 (dE=-0.644E-03)
 reached required accuracy - stopping structural energy minimisation
 writing wavefunctions
