 ----------------------------------------------------
    OOO  PPPP  EEEEE N   N M   M PPPP
   O   O P   P E     NN  N MM MM P   P
   O   O PPPP  EEEEE N N N M M M PPPP   -- VERSION
   O   O P     E     N  NN M   M P
    OOO  P     EEEEE N   N M   M P
 ----------------------------------------------------
 running  512 mpi-ranks, with    1 threads/rank
 distrk:  each k-point on  512 cores,    1 groups
 distr:  one band on    4 cores,  128 groups
 vasp.6.3.2 27Jun22 (build Nov 12 2024 19:13:04) complex                        
  
 POSCAR found type information on POSCAR MnBrN C H 
 POSCAR found :  5 types and     635 ions
 scaLAPACK will be used
 LDA part: xc-table for Pade appr. of Perdew
 POSCAR, INCAR and KPOINTS ok, starting setup
 FFT: planning ... GRIDC
 FFT: planning ... GRID_SOFT
 FFT: planning ... GRID
 WAVECAR not read
 entering main loop
       N       E                     dE             d eps       ncg     rms          rms(c)
DAV:   1     0.981594402014E+04    0.98159E+04   -0.80284E+05  5376   0.119E+03
DAV:   2    -0.263561451902E+04   -0.12452E+05   -0.12025E+05  6400   0.259E+02
DAV:   3    -0.386489089059E+04   -0.12293E+04   -0.12180E+04  6400   0.864E+01
DAV:   4    -0.389785887120E+04   -0.32968E+02   -0.32667E+02  6784   0.160E+01
DAV:   5    -0.389876554611E+04   -0.90667E+00   -0.90556E+00  6656   0.256E+00    0.173E+02
DAV:   6    -0.463864587474E+04   -0.73988E+03   -0.37737E+03  6400   0.481E+01    0.418E+02
DAV:   7    -0.404856675807E+04    0.59008E+03   -0.80999E+02  6528   0.286E+01    0.227E+02
DAV:   8    -0.381036555710E+04    0.23820E+03   -0.17129E+03  6912   0.518E+01    0.125E+02
DAV:   9    -0.428861194112E+04   -0.47825E+03   -0.78821E+03  7680   0.336E+01    0.162E+02
DAV:  10    -0.365767886635E+04    0.63093E+03   -0.16492E+03  7424   0.311E+01    0.118E+02
DAV:  11    -0.367106141411E+04   -0.13383E+02   -0.92298E+02  6400   0.197E+01    0.118E+02
DAV:  12    -0.363400890747E+04    0.37053E+02   -0.55652E+02  6272   0.166E+01    0.117E+02
DAV:  13    -0.361205753448E+04    0.21951E+02   -0.54196E+02  6656   0.114E+01    0.987E+01
DAV:  14    -0.360659524600E+04    0.54623E+01   -0.54609E+02  6272   0.892E+00    0.971E+01
DAV:  15    -0.359096436926E+04    0.15631E+02   -0.20017E+02  6528   0.780E+00    0.945E+01
DAV:  16    -0.356528776893E+04    0.25677E+02   -0.13311E+02  6272   0.750E+00    0.793E+01
DAV:  17    -0.355903314962E+04    0.62546E+01   -0.57741E+01  6144   0.307E+00    0.660E+01
DAV:  18    -0.355879035847E+04    0.24279E+00   -0.38854E+01  5888   0.296E+00    0.697E+01
DAV:  19    -0.355561728354E+04    0.31731E+01   -0.15413E+01  5760   0.164E+00    0.605E+01
DAV:  20    -0.355484703583E+04    0.77025E+00   -0.26401E+01  5888   0.137E+00    0.672E+01
DAV:  21    -0.355501260850E+04   -0.16557E+00   -0.48441E-01  5632   0.886E-01    0.663E+01
DAV:  22    -0.355402532001E+04    0.98729E+00   -0.83699E+00  5888   0.800E-01    0.612E+01
DAV:  23    -0.355363993459E+04    0.38539E+00   -0.34078E-01  5632   0.682E-01    0.606E+01
DAV:  24    -0.355384941751E+04   -0.20948E+00   -0.16111E+00  6016   0.478E-01    0.597E+01
DAV:  25    -0.355399703245E+04   -0.14761E+00   -0.13001E+00  5632   0.444E-01    0.601E+01
DAV:  26    -0.355831469722E+04   -0.43177E+01   -0.60069E+01  6144   0.171E+00    0.692E+01
DAV:  27    -0.355438761302E+04    0.39271E+01   -0.89537E+01  5888   0.316E+00    0.626E+01
DAV:  28    -0.355500389498E+04   -0.61628E+00   -0.56456E+00  5632   0.134E+00    0.556E+01
DAV:  29    -0.355434985589E+04    0.65404E+00   -0.15264E+00  5632   0.662E-01    0.579E+01
DAV:  30    -0.355425666651E+04    0.93189E-01   -0.35460E-01  5888   0.343E-01    0.585E+01
DAV:  31    -0.355369934650E+04    0.55732E+00   -0.14565E+01  6016   0.789E-01    0.534E+01
DAV:  32    -0.355479423463E+04   -0.10949E+01   -0.80569E-01  5760   0.695E-01    0.528E+01
DAV:  33    -0.355490025610E+04   -0.10602E+00   -0.17170E-01  5888   0.343E-01    0.527E+01
DAV:  34    -0.355480857935E+04    0.91677E-01   -0.29078E+00  6528   0.451E-01    0.544E+01
DAV:  35    -0.355497094544E+04   -0.16237E+00   -0.12146E-01  5760   0.310E-01    0.544E+01
DAV:  36    -0.355500907847E+04   -0.38133E-01   -0.85720E-02  6400   0.113E-01    0.544E+01
DAV:  37    -0.355502350980E+04   -0.14431E-01   -0.45553E-03  5632   0.634E-02    0.544E+01
DAV:  38    -0.355512393209E+04   -0.10042E+00   -0.59665E-01  6400   0.308E-01    0.538E+01
DAV:  39    -0.355508998826E+04    0.33944E-01   -0.86880E-01  6016   0.335E-01    0.541E+01
DAV:  40    -0.355499586305E+04    0.94125E-01   -0.87355E-01  5888   0.372E-01    0.533E+01
DAV:  41    -0.355568587852E+04   -0.69002E+00   -0.39324E+00  6400   0.596E-01    0.514E+01
DAV:  42    -0.355610566178E+04   -0.41978E+00   -0.16608E+00  6144   0.802E-01    0.500E+01
DAV:  43    -0.355547082905E+04    0.63483E+00   -0.21398E+00  5760   0.651E-01    0.521E+01
DAV:  44    -0.355534070075E+04    0.13013E+00   -0.46879E+00  5760   0.859E-01    0.483E+01
DAV:  45    -0.355580727426E+04   -0.46657E+00   -0.44525E-01  5632   0.532E-01    0.481E+01
DAV:  46    -0.355572158240E+04    0.85692E-01   -0.10046E+01  6400   0.571E-01    0.477E+01
DAV:  47    -0.355578628239E+04   -0.64700E-01   -0.10148E-01  5632   0.382E-01    0.478E+01
DAV:  48    -0.355620127960E+04   -0.41500E+00   -0.24061E+00  6144   0.387E-01    0.459E+01
DAV:  49    -0.355603183840E+04    0.16944E+00   -0.17398E-01  5632   0.384E-01    0.458E+01
DAV:  50    -0.355634663340E+04   -0.31480E+00   -0.10659E+00  6016   0.294E-01    0.455E+01
DAV:  51    -0.356284748832E+04   -0.65009E+01   -0.27473E+01  7040   0.247E+00    0.585E+01
DAV:  52    -0.356284688720E+04    0.60112E-03   -0.32331E+00  6016   0.135E+00    0.569E+01
DAV:  53    -0.356195771565E+04    0.88917E+00   -0.48027E+00  6400   0.734E-01    0.534E+01
DAV:  54    -0.356210722616E+04   -0.14951E+00   -0.16767E-01  5632   0.462E-01    0.531E+01
DAV:  55    -0.356227339191E+04   -0.16617E+00   -0.21514E-01  6016   0.283E-01    0.562E+01
DAV:  56    -0.358127094070E+04   -0.18998E+02   -0.22968E+02  6272   0.542E+00    0.607E+01
DAV:  57    -0.357229871091E+04    0.89722E+01   -0.68079E+01  6400   0.525E+00    0.562E+01
DAV:  58    -0.356442407193E+04    0.78746E+01   -0.66123E+01  6016   0.409E+00    0.453E+01
DAV:  59    -0.356708602844E+04   -0.26620E+01   -0.71452E+01  6144   0.266E+00    0.430E+01
DAV:  60    -0.356650107042E+04    0.58496E+00   -0.96328E+00  5888   0.197E+00    0.397E+01
DAV:  61    -0.356773421574E+04   -0.12331E+01   -0.50277E+01  6016   0.368E+00    0.424E+01
DAV:  62    -0.356768889884E+04    0.45317E-01   -0.21658E+01  5632   0.239E+00    0.382E+01
DAV:  63    -0.356773355448E+04   -0.44656E-01   -0.32187E-01  5760   0.564E-01    0.382E+01
DAV:  64    -0.356770308882E+04    0.30466E-01   -0.11189E-01  5888   0.252E-01    0.380E+01
DAV:  65    -0.356768956576E+04    0.13523E-01   -0.13866E-02  5632   0.126E-01    0.378E+01
DAV:  66    -0.356871331942E+04   -0.10238E+01   -0.12270E+01  6144   0.184E+00    0.384E+01
DAV:  67    -0.356924569171E+04   -0.53237E+00   -0.26849E+00  5760   0.105E+00    0.353E+01
DAV:  68    -0.357057201019E+04   -0.13263E+01   -0.59190E+00  6144   0.105E+00    0.344E+01
DAV:  69    -0.357122593980E+04   -0.65393E+00   -0.19056E+00  6400   0.809E-01    0.337E+01
DAV:  70    -0.357224342006E+04   -0.10175E+01   -0.10567E+01  6656   0.221E+00    0.351E+01
DAV:  71    -0.357644695725E+04   -0.42035E+01   -0.24264E+01  5888   0.363E+00    0.414E+01
DAV:  72    -0.357509600706E+04    0.13510E+01   -0.62667E+00  6400   0.245E+00    0.374E+01
DAV:  73    -0.357537471588E+04   -0.27871E+00   -0.47442E+00  6144   0.126E+00    0.380E+01
DAV:  74    -0.357389661737E+04    0.14781E+01   -0.26057E+00  6144   0.132E+00    0.358E+01
DAV:  75    -0.357370969582E+04    0.18692E+00   -0.45561E-01  5760   0.675E-01    0.350E+01
DAV:  76    -0.357194782007E+04    0.17619E+01   -0.11404E+01  5888   0.185E+00    0.318E+01
DAV:  77    -0.357250284313E+04   -0.55502E+00   -0.26185E+00  6016   0.110E+00    0.294E+01
DAV:  78    -0.357345481741E+04   -0.95197E+00   -0.87530E-01  6144   0.980E-01    0.299E+01
DAV:  79    -0.357306902816E+04    0.38579E+00   -0.85101E-01  6400   0.753E-01    0.288E+01
DAV:  80    -0.357323791234E+04   -0.16888E+00   -0.87689E+00  6400   0.107E+00    0.308E+01
DAV:  81    -0.357204721623E+04    0.11907E+01   -0.29275E+00  6272   0.109E+00    0.309E+01
DAV:  82    -0.357229321462E+04   -0.24600E+00   -0.58907E-01  6144   0.608E-01    0.307E+01
DAV:  83    -0.357225406600E+04    0.39149E-01   -0.12006E+00  5888   0.401E-01    0.309E+01
DAV:  84    -0.357248124375E+04   -0.22718E+00   -0.21934E+00  5888   0.699E-01    0.284E+01
DAV:  85    -0.357251390711E+04   -0.32663E-01   -0.24781E+00  5632   0.583E-01    0.289E+01
DAV:  86    -0.357443884599E+04   -0.19249E+01   -0.11356E+01  6528   0.162E+00    0.278E+01
DAV:  87    -0.357562607177E+04   -0.11872E+01   -0.10933E+00  5760   0.120E+00    0.265E+01
DAV:  88    -0.357851334556E+04   -0.28873E+01   -0.12558E+01  6144   0.203E+00    0.285E+01
DAV:  89    -0.357918117095E+04   -0.66783E+00   -0.77541E-01  6016   0.778E-01    0.289E+01
DAV:  90    -0.357937087118E+04   -0.18970E+00   -0.34941E-01  6016   0.272E-01    0.307E+01
DAV:  91    -0.358099120800E+04   -0.16203E+01   -0.24629E+00  6016   0.114E+00    0.339E+01
DAV:  92    -0.358043108882E+04    0.56012E+00   -0.19386E-01  5632   0.471E-01    0.329E+01
DAV:  93    -0.358106502366E+04   -0.63393E+00   -0.31354E+00  6400   0.545E-01    0.377E+01
DAV:  94    -0.358117380495E+04   -0.10878E+00   -0.62383E-01  5760   0.416E-01    0.362E+01
DAV:  95    -0.358132778543E+04   -0.15398E+00   -0.27006E-02  5760   0.183E-01    0.363E+01
DAV:  96    -0.357937734127E+04    0.19504E+01   -0.62656E+01  6528   0.357E+00    0.368E+01
DAV:  97    -0.357786557289E+04    0.15118E+01   -0.12722E+01  6144   0.206E+00    0.307E+01
DAV:  98    -0.357823315488E+04   -0.36758E+00   -0.31017E+00  6144   0.122E+00    0.290E+01
DAV:  99    -0.357874220348E+04   -0.50905E+00   -0.16580E+00  6016   0.838E-01    0.292E+01
DAV: 100    -0.357927518358E+04   -0.53298E+00   -0.12902E+00  6400   0.515E-01    0.307E+01
DAV: 101    -0.357956241447E+04   -0.28723E+00   -0.62487E+01  6400   0.525E+00    0.459E+01
DAV: 102    -0.357641526294E+04    0.31472E+01   -0.24072E+01  6528   0.265E+00    0.307E+01
DAV: 103    -0.357837203080E+04   -0.19568E+01   -0.33343E+00  6016   0.136E+00    0.266E+01
DAV: 104    -0.358034486096E+04   -0.19728E+01   -0.64846E+00  5888   0.969E-01    0.277E+01
DAV: 105    -0.358068625833E+04   -0.34140E+00   -0.19442E-01  6016   0.413E-01    0.273E+01
DAV: 106    -0.358451633974E+04   -0.38301E+01   -0.60217E+01  6528   0.412E+00    0.469E+01
DAV: 107    -0.358087770422E+04    0.36386E+01   -0.14557E+01  5632   0.218E+00    0.239E+01
DAV: 108    -0.358243163821E+04   -0.15539E+01   -0.31644E+00  6784   0.134E+00    0.228E+01
DAV: 109    -0.358410990608E+04   -0.16783E+01   -0.72728E+00  6784   0.142E+00    0.249E+01
DAV: 110    -0.358464359020E+04   -0.53368E+00   -0.20712E+00  5888   0.749E-01    0.263E+01
DAV: 111    -0.358711242189E+04   -0.24688E+01   -0.15224E+01  6144   0.136E+00    0.292E+01
DAV: 112    -0.358648009469E+04    0.63233E+00   -0.88039E-01  6400   0.881E-01    0.283E+01
DAV: 113    -0.358568874690E+04    0.79135E+00   -0.10815E+01  6400   0.127E+00    0.252E+01
DAV: 114    -0.358569582040E+04   -0.70735E-02   -0.38298E-01  5632   0.694E-01    0.245E+01
DAV: 115    -0.358478476622E+04    0.91105E+00   -0.90310E+00  6400   0.156E+00    0.220E+01
DAV: 116    -0.358506090800E+04   -0.27614E+00   -0.24070E+01  6400   0.280E+00    0.201E+01
DAV: 117    -0.358495766717E+04    0.10324E+00   -0.81017E+00  6912   0.157E+00    0.175E+01
DAV: 118    -0.358500406872E+04   -0.46402E-01   -0.12135E+00  6272   0.986E-01    0.173E+01
DAV: 119    -0.358580214505E+04   -0.79808E+00   -0.52336E+00  6656   0.157E+00    0.191E+01
DAV: 120    -0.358589592582E+04   -0.93781E-01   -0.35974E-01  6016   0.544E-01    0.186E+01
DAV: 121    -0.358859823727E+04   -0.27023E+01   -0.40940E+01  6400   0.340E+00    0.260E+01
DAV: 122    -0.358737196514E+04    0.12263E+01   -0.12155E+01  5632   0.168E+00    0.171E+01
DAV: 123    -0.358780856107E+04   -0.43660E+00   -0.36482E-01  6144   0.613E-01    0.162E+01
DAV: 124    -0.358836802624E+04   -0.55947E+00   -0.46750E+00  6656   0.142E+00    0.152E+01
DAV: 125    -0.358869937841E+04   -0.33135E+00   -0.33837E-01  6272   0.511E-01    0.146E+01
DAV: 126    -0.358903558885E+04   -0.33621E+00   -0.10549E+00  6400   0.807E-01    0.137E+01
DAV: 127    -0.358886040590E+04    0.17518E+00   -0.40167E+00  6400   0.665E-01    0.126E+01
DAV: 128    -0.358908747242E+04   -0.22707E+00   -0.31128E-01  6016   0.556E-01    0.117E+01
DAV: 129    -0.358912564519E+04   -0.38173E-01   -0.83645E-01  6528   0.715E-01    0.107E+01
DAV: 130    -0.358932061214E+04   -0.19497E+00   -0.58894E-01  6912   0.424E-01    0.101E+01
DAV: 131    -0.358969670020E+04   -0.37609E+00   -0.14380E+00  6912   0.651E-01    0.913E+00
DAV: 132    -0.358963261460E+04    0.64086E-01   -0.67604E-01  6912   0.454E-01    0.909E+00
DAV: 133    -0.358955895580E+04    0.73659E-01   -0.23995E-01  6272   0.251E-01    0.926E+00
DAV: 134    -0.358959120216E+04   -0.32246E-01   -0.10975E-01  5760   0.213E-01    0.910E+00
DAV: 135    -0.358962373470E+04   -0.32533E-01   -0.62529E-01  5888   0.484E-01    0.866E+00
DAV: 136    -0.358915331344E+04    0.47042E+00   -0.62191E+00  5760   0.147E+00    0.144E+01
DAV: 137    -0.358901341303E+04    0.13990E+00   -0.20865E+00  5632   0.904E-01    0.847E+00
DAV: 138    -0.358904737933E+04   -0.33966E-01   -0.33377E-01  6400   0.509E-01    0.727E+00
DAV: 139    -0.358908323292E+04   -0.35854E-01   -0.38676E-01  6656   0.594E-01    0.683E+00
DAV: 140    -0.358922764725E+04   -0.14441E+00   -0.21868E-01  5760   0.422E-01    0.711E+00
DAV: 141    -0.358854804131E+04    0.67961E+00   -0.80722E-01  6016   0.899E-01    0.145E+01
DAV: 142    -0.358836200602E+04    0.18604E+00   -0.10494E-01  5760   0.283E-01    0.149E+01
DAV: 143    -0.358868480252E+04   -0.32280E+00   -0.79798E-02  5760   0.396E-01    0.164E+01
DAV: 144    -0.358864739237E+04    0.37410E-01   -0.18310E-02  6016   0.119E-01    0.164E+01
DAV: 145    -0.358870699788E+04   -0.59606E-01   -0.13639E-02  6016   0.101E-01    0.162E+01
DAV: 146    -0.359009528685E+04   -0.13883E+01   -0.49333E+00  6016   0.106E+00    0.125E+01
DAV: 147    -0.359017819603E+04   -0.82909E-01   -0.26840E-01  5632   0.635E-01    0.117E+01
DAV: 148    -0.359024186787E+04   -0.63672E-01   -0.15907E+00  6400   0.598E-01    0.155E+01
DAV: 149    -0.359013711819E+04    0.10475E+00   -0.16147E-01  6016   0.369E-01    0.143E+01
DAV: 150    -0.359012662777E+04    0.10490E-01   -0.90403E-02  6528   0.247E-01    0.120E+01
DAV: 151    -0.358992811430E+04    0.19851E+00   -0.39320E+00  6656   0.108E+00    0.128E+01
DAV: 152    -0.358999075709E+04   -0.62643E-01   -0.11600E-01  5888   0.293E-01    0.123E+01
DAV: 153    -0.358999771236E+04   -0.69553E-02   -0.47457E-03  5888   0.699E-02    0.123E+01
DAV: 154    -0.359000442534E+04   -0.67130E-02   -0.59254E-02  5760   0.119E-01    0.118E+01
DAV: 155    -0.359011320677E+04   -0.10878E+00   -0.35712E-01  6272   0.334E-01    0.117E+01
DAV: 156    -0.359032978429E+04   -0.21658E+00   -0.37755E+00  6272   0.679E-01    0.145E+01
DAV: 157    -0.359018329901E+04    0.14649E+00   -0.25967E-01  5888   0.637E-01    0.131E+01
DAV: 158    -0.359024734273E+04   -0.64044E-01   -0.15630E+00  6400   0.632E-01    0.123E+01
DAV: 159    -0.359031082366E+04   -0.63481E-01   -0.95024E-02  5888   0.308E-01    0.126E+01
DAV: 160    -0.359033246091E+04   -0.21637E-01   -0.55193E-02  6144   0.306E-01    0.125E+01
DAV: 161    -0.359101221016E+04   -0.67975E+00   -0.73590E-01  6400   0.913E-01    0.148E+01
DAV: 162    -0.359092219306E+04    0.90017E-01   -0.99940E-02  5760   0.353E-01    0.147E+01
DAV: 163    -0.359090744298E+04    0.14750E-01   -0.28744E-02  6400   0.160E-01    0.146E+01
DAV: 164    -0.359090529111E+04    0.21519E-02   -0.22035E-01  6272   0.504E-01    0.135E+01
DAV: 165    -0.359107489592E+04   -0.16960E+00   -0.32329E+00  6656   0.984E-01    0.103E+01
DAV: 166    -0.359128831155E+04   -0.21342E+00   -0.39520E-01  6272   0.625E-01    0.105E+01
DAV: 167    -0.359139244101E+04   -0.10413E+00   -0.24088E-01  6656   0.453E-01    0.102E+01
DAV: 168    -0.359161039808E+04   -0.21796E+00   -0.43963E-01  6528   0.571E-01    0.173E+01
DAV: 169    -0.359152855898E+04    0.81839E-01   -0.82140E-02  5632   0.269E-01    0.173E+01
DAV: 170    -0.359149749501E+04    0.31064E-01   -0.36242E-03  6272   0.614E-02    0.173E+01
DAV: 171    -0.359207474766E+04   -0.57725E+00   -0.24129E-01  6144   0.518E-01    0.174E+01
DAV: 172    -0.359204641891E+04    0.28329E-01   -0.24548E-02  5632   0.120E-01    0.174E+01
DAV: 173    -0.359209446226E+04   -0.48043E-01   -0.87152E-02  6528   0.135E-01    0.173E+01
DAV: 174    -0.359202667632E+04    0.67786E-01   -0.29355E-01  6272   0.186E-01    0.174E+01
DAV: 175    -0.359201402166E+04    0.12655E-01   -0.18805E-01  6272   0.173E-01    0.175E+01
DAV: 176    -0.359169852510E+04    0.31550E+00   -0.21930E-01  6528   0.497E-01    0.172E+01
DAV: 177    -0.359131173189E+04    0.38679E+00   -0.17758E-01  6656   0.384E-01    0.169E+01
DAV: 178    -0.359110309972E+04    0.20863E+00   -0.49433E-02  6528   0.242E-01    0.141E+01
DAV: 179    -0.359100645028E+04    0.96649E-01   -0.12038E-01  6400   0.345E-01    0.129E+01
DAV: 180    -0.359083126379E+04    0.17519E+00   -0.55919E-01  7168   0.525E-01    0.129E+01
DAV: 181    -0.359176202527E+04   -0.93076E+00   -0.70381E+00  7296   0.123E+00    0.149E+01
DAV: 182    -0.359160393492E+04    0.15809E+00   -0.37557E-01  5888   0.614E-01    0.147E+01
DAV: 183    -0.359155796919E+04    0.45966E-01   -0.36012E-02  6528   0.193E-01    0.147E+01
DAV: 184    -0.359133205669E+04    0.22591E+00   -0.35902E-01  6528   0.440E-01    0.157E+01
DAV: 185    -0.359102240622E+04    0.30965E+00   -0.41119E-01  6144   0.388E-01    0.116E+01
DAV: 186    -0.359110721781E+04   -0.84812E-01   -0.18889E+01  6144   0.282E+00    0.146E+01
DAV: 187    -0.359144205386E+04   -0.33484E+00   -0.83244E-01  6272   0.868E-01    0.140E+01
DAV: 188    -0.359127064767E+04    0.17141E+00   -0.13345E+00  6912   0.714E-01    0.115E+01
DAV: 189    -0.359094992432E+04    0.32072E+00   -0.37172E-01  6912   0.795E-01    0.106E+01
DAV: 190    -0.359070324596E+04    0.24668E+00   -0.30873E-01  6528   0.531E-01    0.118E+01
DAV: 191    -0.359051931034E+04    0.18394E+00   -0.71644E-01  6400   0.690E-01    0.151E+01
DAV: 192    -0.359054610303E+04   -0.26793E-01   -0.70049E-02  5632   0.257E-01    0.132E+01
DAV: 193    -0.359057085562E+04   -0.24753E-01   -0.38591E-03  6016   0.545E-02    0.131E+01
DAV: 194    -0.359057571498E+04   -0.48594E-02   -0.17775E-04  6656   0.107E-02    0.131E+01
DAV: 195    -0.359057699658E+04   -0.12816E-02   -0.61729E-04  5632   0.153E-02    0.130E+01
DAV: 196    -0.359070874306E+04   -0.13175E+00   -0.32136E-02  6144   0.182E-01    0.137E+01
DAV: 197    -0.359062431667E+04    0.84426E-01   -0.75919E-02  5760   0.254E-01    0.124E+01
DAV: 198    -0.359054119215E+04    0.83125E-01   -0.42209E-01  6144   0.419E-01    0.108E+01
DAV: 199    -0.359055273451E+04   -0.11542E-01   -0.46236E-02  6016   0.195E-01    0.119E+01
DAV: 200    -0.359056057639E+04   -0.78419E-02   -0.72614E-02  6656   0.111E-01    0.130E+01
DAV: 201    -0.359057208720E+04   -0.11511E-01   -0.90993E-02  6016   0.398E-01    0.138E+01
DAV: 202    -0.359060759917E+04   -0.35512E-01   -0.16781E-02  5632   0.116E-01    0.138E+01
DAV: 203    -0.359045498400E+04    0.15262E+00   -0.33902E-02  5888   0.194E-01    0.137E+01
DAV: 204    -0.359029924278E+04    0.15574E+00   -0.31374E-02  6144   0.170E-01    0.137E+01
DAV: 205    -0.359003937163E+04    0.25987E+00   -0.10612E-01  6144   0.266E-01    0.150E+01
DAV: 206    -0.358991765271E+04    0.12172E+00   -0.10860E+00  6400   0.488E-01    0.137E+01
DAV: 207    -0.359006356501E+04   -0.14591E+00   -0.10391E-01  5760   0.356E-01    0.135E+01
DAV: 208    -0.359021755890E+04   -0.15399E+00   -0.72646E-01  6016   0.323E-01    0.152E+01
DAV: 209    -0.359021892359E+04   -0.13647E-02   -0.15636E-01  5760   0.321E-01    0.127E+01
DAV: 210    -0.359025171188E+04   -0.32788E-01   -0.97762E-02  5888   0.264E-01    0.116E+01
DAV: 211    -0.359114199463E+04   -0.89028E+00   -0.19736E+01  6400   0.185E+00    0.168E+01
DAV: 212    -0.359096268294E+04    0.17931E+00   -0.34453E-01  5760   0.566E-01    0.164E+01
DAV: 213    -0.359088896668E+04    0.73716E-01   -0.56114E-02  6144   0.205E-01    0.162E+01
DAV: 214    -0.359064483289E+04    0.24413E+00   -0.22470E+00  6144   0.517E-01    0.159E+01
DAV: 215    -0.359065581385E+04   -0.10981E-01   -0.47054E-02  5760   0.200E-01    0.159E+01
DAV: 216    -0.359037580821E+04    0.28001E+00   -0.69140E+00  6144   0.125E+00    0.120E+01
DAV: 217    -0.359045783036E+04   -0.82022E-01   -0.69686E-01  5888   0.655E-01    0.144E+01
DAV: 218    -0.359026228309E+04    0.19555E+00   -0.34352E-01  6272   0.466E-01    0.137E+01
DAV: 219    -0.359019112087E+04    0.71162E-01   -0.92087E-02  6016   0.333E-01    0.160E+01
DAV: 220    -0.359011984529E+04    0.71276E-01   -0.54000E-02  5632   0.272E-01    0.144E+01
DAV: 221    -0.359004820150E+04    0.71644E-01   -0.13569E+00  6400   0.470E-01    0.155E+01
DAV: 222    -0.359008585472E+04   -0.37653E-01   -0.11819E-01  5760   0.247E-01    0.146E+01
DAV: 223    -0.359035667248E+04   -0.27082E+00   -0.18904E-01  6656   0.205E-01    0.147E+01
DAV: 224    -0.359030733936E+04    0.49333E-01   -0.32419E-01  6016   0.221E-01    0.153E+01
DAV: 225    -0.359032787817E+04   -0.20539E-01   -0.28528E-01  6528   0.297E-01    0.152E+01
DAV: 226    -0.359010885236E+04    0.21903E+00   -0.17323E+00  6272   0.664E-01    0.182E+01
DAV: 227    -0.358989008667E+04    0.21877E+00   -0.20326E+00  5632   0.491E-01    0.181E+01
DAV: 228    -0.358885921276E+04    0.10309E+01   -0.11400E+00  5504   0.625E-01    0.150E+01
DAV: 229    -0.358870593138E+04    0.15328E+00   -0.75880E-02  6272   0.221E-01    0.132E+01
DAV: 230    -0.358870966996E+04   -0.37386E-02   -0.13690E-02  6400   0.130E-01    0.134E+01
DAV: 231    -0.358867413191E+04    0.35538E-01   -0.25670E-01  6016   0.214E-01    0.152E+01
DAV: 232    -0.358869161141E+04   -0.17479E-01   -0.25217E-02  5632   0.163E-01    0.156E+01
DAV: 233    -0.358882256868E+04   -0.13096E+00   -0.12404E-01  6272   0.354E-01    0.171E+01
DAV: 234    -0.358879311256E+04    0.29456E-01   -0.16056E-02  5760   0.114E-01    0.171E+01
DAV: 235    -0.358875737905E+04    0.35734E-01   -0.11971E-02  6144   0.105E-01    0.168E+01
DAV: 236    -0.359009563557E+04   -0.13383E+01   -0.28431E+00  6400   0.141E+00    0.950E+00
DAV: 237    -0.359062013209E+04   -0.52450E+00   -0.96810E-01  6144   0.819E-01    0.153E+01
DAV: 238    -0.359052278675E+04    0.97345E-01   -0.17446E-01  6528   0.479E-01    0.150E+01
DAV: 239    -0.359047916808E+04    0.43619E-01   -0.52491E-02  6528   0.188E-01    0.138E+01
DAV: 240    -0.359048686644E+04   -0.76984E-02   -0.74061E-03  5632   0.804E-02    0.135E+01
DAV: 241    -0.359085692350E+04   -0.37006E+00   -0.24369E+01  6272   0.257E+00    0.206E+01
DAV: 242    -0.359084967787E+04    0.72456E-02   -0.63913E-01  5760   0.561E-01    0.199E+01
DAV: 243    -0.359078735653E+04    0.62321E-01   -0.29989E-02  7040   0.143E-01    0.193E+01
DAV: 244    -0.359096321329E+04   -0.17586E+00   -0.28174E-02  5760   0.117E-01    0.198E+01
DAV: 245    -0.359096382059E+04   -0.60731E-03   -0.41428E-03  6528   0.473E-02    0.196E+01
DAV: 246    -0.359147085503E+04   -0.50703E+00   -0.52052E-01  6656   0.603E-01    0.201E+01
DAV: 247    -0.359131855557E+04    0.15230E+00   -0.33572E-01  5888   0.200E-01    0.200E+01
DAV: 248    -0.359144445020E+04   -0.12589E+00   -0.87460E-01  6656   0.364E-01    0.200E+01
DAV: 249    -0.359142624456E+04    0.18206E-01   -0.24901E-02  5760   0.135E-01    0.199E+01
DAV: 250    -0.359136234783E+04    0.63897E-01   -0.66986E-02  6528   0.835E-02    0.196E+01
DAV: 251    -0.359110925154E+04    0.25310E+00   -0.56992E-01  6272   0.490E-01    0.187E+01
DAV: 252    -0.359119214932E+04   -0.82898E-01   -0.14824E-01  6400   0.297E-01    0.186E+01
DAV: 253    -0.359093665028E+04    0.25550E+00   -0.48135E-01  6656   0.351E-01    0.185E+01
DAV: 254    -0.359035779065E+04    0.57886E+00   -0.31690E-01  6528   0.370E-01    0.183E+01
DAV: 255    -0.359055508365E+04   -0.19729E+00   -0.33063E-02  5760   0.172E-01    0.184E+01
DAV: 256    -0.358981854851E+04    0.73654E+00   -0.15988E+00  6400   0.117E+00    0.150E+01
DAV: 257    -0.358874760667E+04    0.10709E+01   -0.14963E+00  6400   0.801E-01    0.184E+01
DAV: 258    -0.358855610219E+04    0.19150E+00   -0.95675E-02  6016   0.257E-01    0.184E+01
DAV: 259    -0.358841849878E+04    0.13760E+00   -0.88522E-03  6400   0.856E-02    0.185E+01
DAV: 260    -0.358786262159E+04    0.55588E+00   -0.73916E-02  6272   0.248E-01    0.186E+01
DAV: 261    -0.358703068701E+04    0.83193E+00   -0.37351E-01  6400   0.730E-01    0.135E+01
DAV: 262    -0.358717261816E+04   -0.14193E+00   -0.12848E-01  6656   0.327E-01    0.143E+01
DAV: 263    -0.358711286040E+04    0.59758E-01   -0.24421E-01  6784   0.358E-01    0.136E+01
DAV: 264    -0.358734137476E+04   -0.22851E+00   -0.56266E-01  6528   0.560E-01    0.158E+01
DAV: 265    -0.358714669102E+04    0.19468E+00   -0.84177E-02  6656   0.361E-01    0.166E+01
DAV: 266    -0.358885129791E+04   -0.17046E+01   -0.27692E+00  6528   0.104E+00    0.185E+01
DAV: 267    -0.358882282690E+04    0.28471E-01   -0.12927E+00  6272   0.739E-01    0.184E+01
DAV: 268    -0.358850916835E+04    0.31366E+00   -0.49165E-01  6400   0.530E-01    0.192E+01
DAV: 269    -0.358829870488E+04    0.21046E+00   -0.19049E-01  6400   0.268E-01    0.192E+01
DAV: 270    -0.358842126727E+04   -0.12256E+00   -0.51064E-02  5888   0.171E-01    0.192E+01
DAV: 271    -0.358872597744E+04   -0.30471E+00   -0.30732E+00  6656   0.628E-01    0.153E+01
DAV: 272    -0.358956391059E+04   -0.83793E+00   -0.45959E-01  6144   0.531E-01    0.122E+01
DAV: 273    -0.359010545632E+04   -0.54155E+00   -0.31517E+00  6272   0.417E-01    0.623E+00
DAV: 274    -0.358983542283E+04    0.27003E+00   -0.29410E-01  6016   0.437E-01    0.649E+00
DAV: 275    -0.358971184353E+04    0.12358E+00   -0.71471E-02  6272   0.245E-01    0.765E+00
DAV: 276    -0.358985412583E+04   -0.14228E+00   -0.52604E-01  6400   0.527E-01    0.179E+01
DAV: 277    -0.358975493261E+04    0.99193E-01   -0.39442E-01  5888   0.476E-01    0.138E+01
DAV: 278    -0.358987212603E+04   -0.11719E+00   -0.59140E-01  6016   0.333E-01    0.617E+00
DAV: 279    -0.359020220220E+04   -0.33008E+00   -0.14095E-01  6016   0.327E-01    0.510E+00
DAV: 280    -0.358987644757E+04    0.32575E+00   -0.26508E-01  6144   0.321E-01    0.481E+00
DAV: 281    -0.359106711802E+04   -0.11907E+01   -0.28102E+00  6016   0.944E-01    0.543E+00
DAV: 282    -0.359112378414E+04   -0.56666E-01   -0.37223E-01  5632   0.377E-01    0.543E+00
DAV: 283    -0.359107166134E+04    0.52123E-01   -0.14419E-01  6144   0.333E-01    0.574E+00
DAV: 284    -0.359108927956E+04   -0.17618E-01   -0.32709E-02  6144   0.144E-01    0.978E+00
DAV: 285    -0.359103295451E+04    0.56325E-01   -0.14302E-02  5632   0.118E-01    0.991E+00
DAV: 286    -0.359094558146E+04    0.87373E-01   -0.32723E+00  5888   0.538E-01    0.496E+00
DAV: 287    -0.359104415265E+04   -0.98571E-01   -0.18235E-01  6656   0.591E-01    0.115E+01
DAV: 288    -0.359101259899E+04    0.31554E-01   -0.22848E-01  6016   0.546E-01    0.104E+01
DAV: 289    -0.359105217669E+04   -0.39578E-01   -0.12838E-01  6784   0.316E-01    0.103E+01
DAV: 290    -0.359108230949E+04   -0.30133E-01   -0.58685E-02  6528   0.148E-01    0.992E+00
DAV: 291    -0.359112726092E+04   -0.44951E-01   -0.19951E-01  6528   0.416E-01    0.101E+01
DAV: 292    -0.359111861236E+04    0.86486E-02   -0.94542E-01  6400   0.459E-01    0.929E+00
DAV: 293    -0.359120661661E+04   -0.88004E-01   -0.68549E-02  5888   0.219E-01    0.940E+00
DAV: 294    -0.359126101234E+04   -0.54396E-01   -0.23014E-02  6272   0.103E-01    0.959E+00
DAV: 295    -0.359123237209E+04    0.28640E-01   -0.52918E-03  5632   0.618E-02    0.949E+00
DAV: 296    -0.359109073284E+04    0.14164E+00   -0.10795E-01  6528   0.306E-01    0.922E+00
DAV: 297    -0.359107356596E+04    0.17167E-01   -0.15253E-02  6272   0.133E-01    0.921E+00
DAV: 298    -0.359100108731E+04    0.72479E-01   -0.17869E-02  6784   0.180E-01    0.911E+00
DAV: 299    -0.359094996773E+04    0.51120E-01   -0.69587E-03  6016   0.114E-01    0.884E+00
DAV: 300    -0.359087942431E+04    0.70543E-01   -0.27214E-02  6400   0.214E-01    0.665E+00
DAV: 301    -0.359089304245E+04   -0.13618E-01   -0.37043E-02  6272   0.144E-01    0.518E+00
DAV: 302    -0.359094742783E+04   -0.54385E-01   -0.16242E-02  5632   0.182E-01    0.731E+00
DAV: 303    -0.359091977304E+04    0.27655E-01   -0.13147E-02  5760   0.103E-01    0.783E+00
DAV: 304    -0.359090635467E+04    0.13418E-01   -0.17234E-03  5632   0.431E-02    0.781E+00
DAV: 305    -0.359090345113E+04    0.29035E-02   -0.91526E-05  6144   0.918E-03    0.778E+00
DAV: 306    -0.359096198920E+04   -0.58538E-01   -0.10743E+00  6144   0.412E-01    0.579E+00
DAV: 307    -0.359099555060E+04   -0.33561E-01   -0.51517E-02  5632   0.245E-01    0.573E+00
DAV: 308    -0.359098854146E+04    0.70091E-02   -0.41281E-03  5632   0.766E-02    0.575E+00
DAV: 309    -0.359098623980E+04    0.23017E-02   -0.21640E-04  6016   0.161E-02    0.576E+00
DAV: 310    -0.359098666136E+04   -0.42156E-03   -0.11697E-03  5888   0.192E-02    0.576E+00
DAV: 311    -0.359100770154E+04   -0.21040E-01   -0.29262E-02  5888   0.136E-01    0.606E+00
DAV: 312    -0.359099703679E+04    0.10665E-01   -0.15154E-02  6144   0.137E-01    0.596E+00
DAV: 313    -0.359099373938E+04    0.32974E-02   -0.15594E-02  6528   0.122E-01    0.595E+00
DAV: 314    -0.359099151948E+04    0.22199E-02   -0.20352E-02  6656   0.140E-01    0.579E+00
DAV: 315    -0.359098885357E+04    0.26659E-02   -0.63395E-02  6528   0.294E-01    0.524E+00
DAV: 316    -0.359105144853E+04   -0.62595E-01   -0.13169E-01  7168   0.314E-01    0.484E+00
DAV: 317    -0.359101736338E+04    0.34085E-01   -0.58507E-02  6144   0.246E-01    0.459E+00
DAV: 318    -0.359099262479E+04    0.24739E-01   -0.57844E-02  6400   0.283E-01    0.439E+00
DAV: 319    -0.359099225797E+04    0.36683E-03   -0.37892E-02  6656   0.194E-01    0.431E+00
DAV: 320    -0.359100109511E+04   -0.88371E-02   -0.36534E-02  7040   0.201E-01    0.422E+00
DAV: 321    -0.359323327785E+04   -0.22322E+01   -0.28118E+01  6784   0.270E+00    0.232E+01
DAV: 322    -0.359318366128E+04    0.49617E-01   -0.60892E-01  6144   0.580E-01    0.221E+01
DAV: 323    -0.359307581998E+04    0.10784E+00   -0.14297E-01  6272   0.129E-01    0.192E+01
DAV: 324    -0.359311141016E+04   -0.35590E-01   -0.74986E-03  5760   0.932E-02    0.195E+01
DAV: 325    -0.359308278689E+04    0.28623E-01   -0.36752E-03  6400   0.416E-02    0.188E+01
DAV: 326    -0.359310228468E+04   -0.19498E-01   -0.59433E-03  6016   0.821E-02    0.193E+01
DAV: 327    -0.359313426905E+04   -0.31984E-01   -0.14248E-03  6528   0.378E-02    0.197E+01
DAV: 328    -0.359320151421E+04   -0.67245E-01   -0.41846E-03  6784   0.786E-02    0.210E+01
DAV: 329    -0.359318786455E+04    0.13650E-01   -0.20181E-03  5632   0.487E-02    0.209E+01
DAV: 330    -0.359328163602E+04   -0.93771E-01   -0.10026E-02  6400   0.676E-02    0.228E+01
DAV: 331    -0.359331453872E+04   -0.32903E-01   -0.14773E-02  6656   0.155E-01    0.234E+01
DAV: 332    -0.359330941195E+04    0.51268E-02   -0.65034E-03  6784   0.675E-02    0.231E+01
DAV: 333    -0.359328158189E+04    0.27830E-01   -0.23505E-02  6912   0.141E-01    0.231E+01
DAV: 334    -0.359312185519E+04    0.15973E+00   -0.99391E-03  6784   0.107E-01    0.213E+01
DAV: 335    -0.359322051292E+04   -0.98658E-01   -0.81259E-03  6272   0.915E-02    0.224E+01
DAV: 336    -0.359293969643E+04    0.28082E+00   -0.24431E-01  6528   0.158E-01    0.188E+01
DAV: 337    -0.359302407153E+04   -0.84375E-01   -0.12428E-02  6016   0.115E-01    0.203E+01
DAV: 338    -0.359303847837E+04   -0.14407E-01   -0.19550E-02  6784   0.565E-02    0.212E+01
DAV: 339    -0.359303753110E+04    0.94728E-03   -0.25711E-03  5888   0.509E-02    0.211E+01
DAV: 340    -0.359308449855E+04   -0.46967E-01   -0.44641E-03  6656   0.528E-02    0.218E+01
DAV: 341    -0.359336824315E+04   -0.28374E+00   -0.26447E-01  6784   0.410E-01    0.256E+01
DAV: 342    -0.359331914653E+04    0.49097E-01   -0.18632E-02  5632   0.127E-01    0.255E+01
DAV: 343    -0.359330716433E+04    0.11982E-01   -0.51394E-04  6528   0.221E-02    0.255E+01
DAV: 344    -0.359330253388E+04    0.46305E-02   -0.10839E-03  6144   0.247E-02    0.257E+01
DAV: 345    -0.359330925413E+04   -0.67203E-02   -0.88147E-04  6016   0.157E-02    0.258E+01
DAV: 346    -0.359309316593E+04    0.21609E+00   -0.13204E+00  6784   0.693E-01    0.257E+01
DAV: 347    -0.359316534772E+04   -0.72182E-01   -0.15044E-01  5632   0.325E-01    0.252E+01
DAV: 348    -0.359307510690E+04    0.90241E-01   -0.19252E-01  6528   0.286E-01    0.217E+01
DAV: 349    -0.359318259699E+04   -0.10749E+00   -0.52654E-02  6144   0.217E-01    0.213E+01
DAV: 350    -0.359331662957E+04   -0.13403E+00   -0.28048E-02  6656   0.172E-01    0.219E+01
DAV: 351    -0.359208209606E+04    0.12345E+01   -0.70743E+00  6912   0.145E+00    0.176E+01
DAV: 352    -0.359220289653E+04   -0.12080E+00   -0.25194E-01  5760   0.481E-01    0.173E+01
DAV: 353    -0.359194843158E+04    0.25446E+00   -0.81616E-02  6656   0.440E-01    0.168E+01
DAV: 354    -0.359165787074E+04    0.29056E+00   -0.22174E+00  6656   0.924E-01    0.177E+01
DAV: 355    -0.359155450651E+04    0.10336E+00   -0.44182E-01  6272   0.489E-01    0.175E+01
DAV: 356    -0.359162980365E+04   -0.75297E-01   -0.33765E-01  6400   0.328E-01    0.154E+01
DAV: 357    -0.359158714702E+04    0.42657E-01   -0.58215E-01  6656   0.589E-01    0.161E+01
DAV: 358    -0.359148629949E+04    0.10085E+00   -0.65974E-02  5632   0.197E-01    0.158E+01
DAV: 359    -0.359153290391E+04   -0.46604E-01   -0.10358E-01  6784   0.229E-01    0.142E+01
DAV: 360    -0.359158946249E+04   -0.56559E-01   -0.59534E-02  5888   0.242E-01    0.163E+01
DAV: 361    -0.359088131286E+04    0.70815E+00   -0.38605E+00  6656   0.145E+00    0.186E+01
DAV: 362    -0.359087376077E+04    0.75521E-02   -0.49415E-01  5888   0.534E-01    0.132E+01
DAV: 363    -0.359074817662E+04    0.12558E+00   -0.54345E-01  6528   0.664E-01    0.108E+01
DAV: 364    -0.359094915111E+04   -0.20097E+00   -0.87348E-02  5760   0.260E-01    0.104E+01
DAV: 365    -0.359089016256E+04    0.58989E-01   -0.26474E-02  5760   0.199E-01    0.108E+01
DAV: 366    -0.359120962753E+04   -0.31946E+00   -0.20601E+01  6400   0.283E+00    0.265E+01
DAV: 367    -0.359037320062E+04    0.83643E+00   -0.90287E-01  6144   0.115E+00    0.241E+01
DAV: 368    -0.358940339754E+04    0.96980E+00   -0.11105E+01  6144   0.173E+00    0.106E+01
DAV: 369    -0.359028740352E+04   -0.88401E+00   -0.19406E+00  6528   0.109E+00    0.775E+00
DAV: 370    -0.359054438935E+04   -0.25699E+00   -0.59052E-01  6272   0.595E-01    0.565E+00
DAV: 371    -0.359063185953E+04   -0.87470E-01   -0.21599E-01  7040   0.328E-01    0.598E+00
DAV: 372    -0.359058993868E+04    0.41921E-01   -0.24415E-01  6784   0.346E-01    0.472E+00
DAV: 373    -0.359051501735E+04    0.74921E-01   -0.72997E-02  6656   0.216E-01    0.504E+00
DAV: 374    -0.359059783973E+04   -0.82822E-01   -0.28978E-02  6272   0.170E-01    0.484E+00
DAV: 375    -0.359070409624E+04   -0.10626E+00   -0.12954E-01  6528   0.242E-01    0.480E+00
DAV: 376    -0.359095430676E+04   -0.25021E+00   -0.24757E-01  6912   0.587E-01    0.113E+01
DAV: 377    -0.359090083240E+04    0.53474E-01   -0.10879E-01  5760   0.332E-01    0.983E+00
DAV: 378    -0.359088459506E+04    0.16237E-01   -0.55678E-02  6528   0.255E-01    0.669E+00
DAV: 379    -0.359090399476E+04   -0.19400E-01   -0.65700E-02  6528   0.302E-01    0.565E+00
DAV: 380    -0.359091999135E+04   -0.15997E-01   -0.10716E-01  6784   0.303E-01    0.906E+00
DAV: 381    -0.359096638085E+04   -0.46390E-01   -0.63913E-01  6272   0.568E-01    0.133E+01
DAV: 382    -0.359086492242E+04    0.10146E+00   -0.17217E-01  6912   0.318E-01    0.135E+01
DAV: 383    -0.359080207426E+04    0.62848E-01   -0.18198E-01  6912   0.238E-01    0.138E+01
DAV: 384    -0.359079193198E+04    0.10142E-01   -0.92232E-02  6656   0.147E-01    0.134E+01
DAV: 385    -0.359088649845E+04   -0.94566E-01   -0.24729E-02  5888   0.241E-01    0.135E+01
DAV: 386    -0.359069160264E+04    0.19490E+00   -0.12982E+00  6656   0.650E-01    0.732E+00
DAV: 387    -0.359081490288E+04   -0.12330E+00   -0.11672E-01  5632   0.300E-01    0.107E+01
DAV: 388    -0.359087264421E+04   -0.57741E-01   -0.27506E-02  6656   0.158E-01    0.128E+01
DAV: 389    -0.359087612111E+04   -0.34769E-02   -0.66774E-02  6400   0.204E-01    0.125E+01
DAV: 390    -0.359085988003E+04    0.16241E-01   -0.22466E-02  7040   0.130E-01    0.119E+01
DAV: 391    -0.359066788482E+04    0.19200E+00   -0.18249E-01  6784   0.435E-01    0.141E+01
DAV: 392    -0.359065409443E+04    0.13790E-01   -0.27170E-02  6016   0.135E-01    0.136E+01
DAV: 393    -0.359062478988E+04    0.29305E-01   -0.85720E-03  6656   0.797E-02    0.134E+01
DAV: 394    -0.359061201865E+04    0.12771E-01   -0.45596E-03  6528   0.722E-02    0.130E+01
DAV: 395    -0.359061898490E+04   -0.69662E-02   -0.27662E-03  5760   0.561E-02    0.133E+01
DAV: 396    -0.359067331165E+04   -0.54327E-01   -0.27784E-01  6400   0.429E-01    0.143E+01
DAV: 397    -0.359069480648E+04   -0.21495E-01   -0.39868E-02  5888   0.159E-01    0.143E+01
DAV: 398    -0.359069612539E+04   -0.13189E-02   -0.35645E-02  5760   0.124E-01    0.127E+01
DAV: 399    -0.359071731742E+04   -0.21192E-01   -0.34983E-02  6272   0.947E-02    0.111E+01
DAV: 400    -0.359075536993E+04   -0.38053E-01   -0.80817E-03  5760   0.958E-02    0.112E+01
DAV: 401    -0.359067209172E+04    0.83278E-01   -0.23316E-02  6016   0.139E-01    0.116E+01
DAV: 402    -0.359065417807E+04    0.17914E-01   -0.25745E-03  5632   0.359E-02    0.121E+01
DAV: 403    -0.359064165850E+04    0.12520E-01   -0.11541E-03  6144   0.331E-02    0.121E+01
DAV: 404    -0.359063891532E+04    0.27432E-02   -0.37532E-05  6656   0.614E-03    0.121E+01
DAV: 405    -0.359062464226E+04    0.14273E-01   -0.20834E-04  6656   0.122E-02    0.122E+01
DAV: 406    -0.359207136648E+04   -0.14467E+01   -0.10999E+01  6016   0.228E+00    0.136E+01
DAV: 407    -0.359182714314E+04    0.24422E+00   -0.43730E-01  6016   0.546E-01    0.134E+01
DAV: 408    -0.359163643585E+04    0.19071E+00   -0.78563E-02  6400   0.224E-01    0.133E+01
DAV: 409    -0.359124182780E+04    0.39461E+00   -0.13900E-01  6272   0.289E-01    0.134E+01
DAV: 410    -0.359062212237E+04    0.61971E+00   -0.41754E-01  6144   0.493E-01    0.454E+00
DAV: 411    -0.359117683657E+04   -0.55471E+00   -0.26325E-01  5632   0.488E-01    0.135E+01
DAV: 412    -0.359078466688E+04    0.39217E+00   -0.12126E-01  5632   0.269E-01    0.997E+00
DAV: 413    -0.359068074249E+04    0.10392E+00   -0.11597E-01  5632   0.188E-01    0.124E+01
DAV: 414    -0.359039775266E+04    0.28299E+00   -0.14228E-01  5888   0.201E-01    0.428E+00
DAV: 415    -0.359060331637E+04   -0.20556E+00   -0.46851E-02  5632   0.281E-01    0.131E+01
DAV: 416    -0.359050605249E+04    0.97264E-01   -0.41942E-02  5760   0.182E-01    0.137E+01
DAV: 417    -0.359048823599E+04    0.17816E-01   -0.92477E-03  6400   0.880E-02    0.141E+01
DAV: 418    -0.359048211171E+04    0.61243E-02   -0.13213E-03  6016   0.353E-02    0.141E+01
DAV: 419    -0.359048200944E+04    0.10227E-03   -0.10639E-04  6272   0.104E-02    0.141E+01
DAV: 420    -0.359048362767E+04   -0.16182E-02   -0.61343E-04  5888   0.230E-02    0.140E+01
DAV: 421    -0.359131105249E+04   -0.82742E+00   -0.39807E-01  6400   0.483E-01    0.142E+01
DAV: 422    -0.359138223590E+04   -0.71183E-01   -0.33914E-02  5888   0.120E-01    0.140E+01
DAV: 423    -0.359153184749E+04   -0.14961E+00   -0.97254E-02  6400   0.143E-01    0.135E+01
DAV: 424    -0.359174701904E+04   -0.21517E+00   -0.11615E-01  6656   0.193E-01    0.131E+01
DAV: 425    -0.359179810629E+04   -0.51087E-01   -0.39450E-02  5888   0.167E-01    0.129E+01
DAV: 426    -0.359161763627E+04    0.18047E+00   -0.12690E+00  6016   0.105E+00    0.164E+01
DAV: 427    -0.359150083146E+04    0.11680E+00   -0.15260E-01  5760   0.351E-01    0.149E+01
DAV: 428    -0.359136386279E+04    0.13697E+00   -0.91982E-02  6272   0.295E-01    0.138E+01
DAV: 429    -0.359129495825E+04    0.68905E-01   -0.14092E-02  5760   0.109E-01    0.138E+01
DAV: 430    -0.359132154029E+04   -0.26582E-01   -0.12709E-03  6272   0.370E-02    0.138E+01
DAV: 431    -0.359132849466E+04   -0.69544E-02   -0.13612E-01  6016   0.317E-01    0.157E+01
DAV: 432    -0.359133899722E+04   -0.10503E-01   -0.14338E-02  5888   0.117E-01    0.159E+01
DAV: 433    -0.359144070522E+04   -0.10171E+00   -0.11324E-02  5888   0.106E-01    0.159E+01
DAV: 434    -0.359168490655E+04   -0.24420E+00   -0.74513E-01  5888   0.585E-01    0.129E+01
DAV: 435    -0.359173242201E+04   -0.47515E-01   -0.69547E-02  5760   0.317E-01    0.136E+01
DAV: 436    -0.359210017925E+04   -0.36776E+00   -0.83465E-01  6016   0.951E-01    0.172E+01
DAV: 437    -0.359166560449E+04    0.43457E+00   -0.90916E-01  6272   0.117E+00    0.129E+01
DAV: 438    -0.359168343951E+04   -0.17835E-01   -0.80891E-02  5760   0.246E-01    0.133E+01
DAV: 439    -0.359161886824E+04    0.64571E-01   -0.66409E-02  6272   0.218E-01    0.127E+01
DAV: 440    -0.359154510311E+04    0.73765E-01   -0.44677E-02  5888   0.203E-01    0.140E+01
DAV: 441    -0.359153166942E+04    0.13434E-01   -0.16077E-02  6144   0.102E-01    0.138E+01
DAV: 442    -0.359148358478E+04    0.48085E-01   -0.12572E-02  6272   0.862E-02    0.126E+01
DAV: 443    -0.359148595421E+04   -0.23694E-02   -0.29857E-02  6144   0.100E-01    0.127E+01
DAV: 444    -0.359147684573E+04    0.91085E-02   -0.15726E-01  6144   0.122E-01    0.114E+01
DAV: 445    -0.359155193104E+04   -0.75085E-01   -0.22227E-02  5888   0.163E-01    0.111E+01
DAV: 446    -0.359160968023E+04   -0.57749E-01   -0.48364E-02  6400   0.125E-01    0.111E+01
DAV: 447    -0.359159394620E+04    0.15734E-01   -0.64033E-03  5760   0.890E-02    0.113E+01
DAV: 448    -0.359158195551E+04    0.11991E-01   -0.62378E-03  6272   0.795E-02    0.112E+01
DAV: 449    -0.359159143486E+04   -0.94794E-02   -0.18744E-03  6016   0.388E-02    0.113E+01
DAV: 450    -0.359159001716E+04    0.14177E-02   -0.10568E-03  6016   0.174E-02    0.112E+01
DAV: 451    -0.359168737383E+04   -0.97357E-01   -0.33308E-02  6144   0.190E-01    0.985E+00
DAV: 452    -0.359186850761E+04   -0.18113E+00   -0.18158E-02  6016   0.134E-01    0.101E+01
DAV: 453    -0.359172193547E+04    0.14657E+00   -0.85912E-03  6016   0.110E-01    0.988E+00
DAV: 454    -0.359182220821E+04   -0.10027E+00   -0.12779E-02  6272   0.898E-02    0.968E+00
DAV: 455    -0.359178830892E+04    0.33899E-01   -0.26234E-03  5888   0.459E-02    0.977E+00
DAV: 456    -0.359252782807E+04   -0.73952E+00   -0.35072E+00  6400   0.109E+00    0.109E+01
DAV: 457    -0.359256103895E+04   -0.33211E-01   -0.10412E-01  5632   0.290E-01    0.108E+01
DAV: 458    -0.359254889977E+04    0.12139E-01   -0.38672E-03  6912   0.745E-02    0.108E+01
DAV: 459    -0.359252916260E+04    0.19737E-01   -0.34364E-03  6528   0.701E-02    0.104E+01
DAV: 460    -0.359249487133E+04    0.34291E-01   -0.51242E-02  6912   0.184E-01    0.754E+00
DAV: 461    -0.359268655047E+04   -0.19168E+00   -0.10709E+00  6528   0.999E-01    0.953E+00
DAV: 462    -0.359277061305E+04   -0.84063E-01   -0.10601E-01  5888   0.313E-01    0.929E+00
DAV: 463    -0.359271564743E+04    0.54966E-01   -0.12652E-02  6016   0.175E-01    0.902E+00
DAV: 464    -0.359263175228E+04    0.83895E-01   -0.39764E-02  6400   0.278E-01    0.782E+00
DAV: 465    -0.359260834992E+04    0.23402E-01   -0.25335E-01  7040   0.205E-01    0.669E+00
DAV: 466    -0.359274519033E+04   -0.13684E+00   -0.15167E-01  6144   0.413E-01    0.103E+01
DAV: 467    -0.359271013490E+04    0.35055E-01   -0.34861E-02  5632   0.185E-01    0.103E+01
DAV: 468    -0.359269670377E+04    0.13431E-01   -0.15552E-03  6528   0.372E-02    0.103E+01
DAV: 469    -0.359268419682E+04    0.12507E-01   -0.18490E-03  6016   0.267E-02    0.103E+01
DAV: 470    -0.359267305129E+04    0.11146E-01   -0.13773E-02  6272   0.501E-02    0.102E+01
DAV: 471    -0.359254338612E+04    0.12967E+00   -0.22621E-01  6272   0.251E-01    0.747E+00
DAV: 472    -0.359257309195E+04   -0.29706E-01   -0.27520E-02  5632   0.138E-01    0.786E+00
DAV: 473    -0.359257291951E+04    0.17243E-03   -0.17200E-03  5760   0.414E-02    0.788E+00
DAV: 474    -0.359256976114E+04    0.31584E-02   -0.86013E-05  6656   0.843E-03    0.777E+00
DAV: 475    -0.359253845858E+04    0.31303E-01   -0.28021E-02  6144   0.992E-02    0.671E+00
DAV: 476    -0.359285225444E+04   -0.31380E+00   -0.39193E+00  6784   0.115E+00    0.930E+00
DAV: 477    -0.359281112649E+04    0.41128E-01   -0.10718E-01  5632   0.324E-01    0.915E+00
DAV: 478    -0.359275027462E+04    0.60852E-01   -0.42920E-02  6656   0.174E-01    0.909E+00
DAV: 479    -0.359269258244E+04    0.57692E-01   -0.57799E-02  6656   0.177E-01    0.906E+00
DAV: 480    -0.359263963568E+04    0.52947E-01   -0.25418E-02  7040   0.140E-01    0.897E+00
DAV: 481    -0.359262209601E+04    0.17540E-01   -0.50309E-02  6144   0.119E-01    0.891E+00
DAV: 482    -0.359262754315E+04   -0.54471E-02   -0.27144E-03  5632   0.555E-02    0.892E+00
DAV: 483    -0.359263064330E+04   -0.31002E-02   -0.15402E-04  6400   0.158E-02    0.892E+00
DAV: 484    -0.359263143774E+04   -0.79444E-03   -0.30558E-05  6272   0.501E-03    0.892E+00
DAV: 485    -0.359263912920E+04   -0.76915E-02   -0.27632E-03  6912   0.424E-02    0.891E+00
DAV: 486    -0.359267233792E+04   -0.33209E-01   -0.48888E-02  6272   0.197E-01    0.892E+00
DAV: 487    -0.359272051735E+04   -0.48179E-01   -0.18897E-02  6784   0.134E-01    0.901E+00
DAV: 488    -0.359273038602E+04   -0.98687E-02   -0.40359E-03  6272   0.523E-02    0.903E+00
DAV: 489    -0.359272818265E+04    0.22034E-02   -0.17573E-03  6784   0.212E-02    0.903E+00
DAV: 490    -0.359272476208E+04    0.34206E-02   -0.13833E-02  6400   0.441E-02    0.901E+00
DAV: 491    -0.359255640309E+04    0.16836E+00   -0.57237E-02  6784   0.375E-01    0.866E+00
DAV: 492    -0.359256079628E+04   -0.43932E-02   -0.75995E-03  5760   0.650E-02    0.866E+00
DAV: 493    -0.359256987144E+04   -0.90752E-02   -0.33984E-04  6656   0.257E-02    0.869E+00
DAV: 494    -0.359252971779E+04    0.40154E-01   -0.11719E-02  6656   0.161E-01    0.844E+00
DAV: 495    -0.359241292567E+04    0.11679E+00   -0.13105E-01  6528   0.570E-01    0.387E+00
DAV: 496    -0.359233515513E+04    0.77771E-01   -0.28541E+00  7040   0.132E+00    0.672E+00
DAV: 497    -0.359234808969E+04   -0.12935E-01   -0.19190E-01  5632   0.417E-01    0.626E+00
DAV: 498    -0.359233698436E+04    0.11105E-01   -0.59435E-01  6784   0.385E-01    0.751E+00
DAV: 499    -0.359237387850E+04   -0.36894E-01   -0.31994E-02  5632   0.189E-01    0.732E+00
DAV: 500    -0.359235851247E+04    0.15366E-01   -0.74700E-03  5888   0.115E-01
 -----------------------------------------------------------------------------
|                                                                             |
|           W    W    AA    RRRRR   N    N  II  N    N   GGGG   !!!           |
|           W    W   A  A   R    R  NN   N  II  NN   N  G    G  !!!           |
|           W    W  A    A  R    R  N N  N  II  N N  N  G       !!!           |
|           W WW W  AAAAAA  RRRRR   N  N N  II  N  N N  G  GGG   !            |
|           WW  WW  A    A  R   R   N   NN  II  N   NN  G    G                |
|           W    W  A    A  R    R  N    N  II  N    N   GGGG   !!!           |
|                                                                             |
|     The electronic self-consistency was not achieved in the given           |
|     number of steps (NELM). The forces and other quantities evaluated       |
|     might not be reliable so examine the results carefully. If you find     |
|     spurious results, we suggest increasing NELM, if you were close to      |
|     convergence or switching to a different ALGO or adjusting the           |
|     density mixing parameters otherwise.                                    |
|                                                                             |
 -----------------------------------------------------------------------------

 augmentation electrons   1804.87487774423     
 soft         electrons  0.000000000000000E+000
 total        electrons   1804.87487774423     
 augmentation electrons -6.037014077094682E-002
 soft         electrons  0.000000000000000E+000
 total        electrons -6.037014077094682E-002
 augmentation electrons   1897.59959528426     
 soft         electrons  0.000000000000000E+000
 total        electrons   1897.59959528426     
 augmentation electrons   1840.97656334226     
 soft         electrons  0.000000000000000E+000
 total        electrons   1840.97656334226     
 augmentation electrons   56.3520430024316     
 soft         electrons   1748.52274554468     
 total        electrons   1804.87478854711     
 augmentation electrons   27.5328463091112     
 soft         electrons   1748.52274554468     
 total        electrons   44.4348031346174     
 translations:           0           1           0
   1 F= -.36299230E+04 E0= -.36299080E+04  d E =-.362992E+04  mag=    44.4952
 curvature:   0.00 expect dE= 0.000E+00 dE for cont linesearch  0.000E+00
 trial: gam= 0.00000 g(F)=  0.252E+00 g(S)=  0.000E+00 ort = 0.000E+00 (trialstep = 0.100E+01)
 search vector abs. value=  0.252E+00
 bond charge predicted
       N       E                     dE             d eps       ncg     rms          rms(c)
DAV:   1    -0.364956134482E+04   -0.57187E+02   -0.45262E+02  6912   0.119E+01    0.698E+01
DAV:   2    -0.403549891842E+04   -0.38594E+03   -0.59696E+03  9216   0.416E+01    0.191E+02
DAV:   3    -0.380513943056E+04    0.23036E+03   -0.20138E+03  6656   0.255E+01    0.134E+02
DAV:   4    -0.372541938746E+04    0.79720E+02   -0.10774E+03  6784   0.189E+01    0.112E+02
DAV:   5    -0.362477974461E+04    0.10064E+03   -0.16644E+02  6656   0.140E+01    0.744E+01
DAV:   6    -0.359747576966E+04    0.27304E+02   -0.17873E+02  6784   0.775E+00    0.626E+01
DAV:   7    -0.359259075876E+04    0.48850E+01   -0.28934E+02  6656   0.435E+00    0.558E+01
DAV:   8    -0.360382112794E+04   -0.11230E+02   -0.30283E+02  6656   0.465E+00    0.557E+01
DAV:   9    -0.359479646411E+04    0.90247E+01   -0.16413E+02  6528   0.317E+00    0.509E+01
DAV:  10    -0.358791107523E+04    0.68854E+01   -0.14435E+01  6144   0.274E+00    0.381E+01
DAV:  11    -0.358835890474E+04   -0.44783E+00   -0.26064E+00  5888   0.909E-01    0.355E+01
DAV:  12    -0.358854620309E+04   -0.18730E+00   -0.16990E+00  6400   0.508E-01    0.315E+01
DAV:  13    -0.358883800687E+04   -0.29180E+00   -0.95033E-02  5888   0.352E-01    0.315E+01
DAV:  14    -0.358878387898E+04    0.54128E-01   -0.15330E-02  5888   0.135E-01    0.316E+01
DAV:  15    -0.358843389004E+04    0.34999E+00   -0.62584E-01  5888   0.292E-01    0.319E+01
DAV:  16    -0.358877015244E+04   -0.33626E+00   -0.15742E+00  6016   0.301E-01    0.358E+01
DAV:  17    -0.358934388037E+04   -0.57373E+00   -0.41078E-01  6016   0.392E-01    0.357E+01
DAV:  18    -0.358933221973E+04    0.11661E-01   -0.13979E-02  5760   0.112E-01    0.358E+01
DAV:  19    -0.358925483846E+04    0.77381E-01   -0.33165E-02  6144   0.910E-02    0.359E+01
DAV:  20    -0.358925956833E+04   -0.47299E-02   -0.40571E-02  5760   0.529E-02    0.358E+01
DAV:  21    -0.358926382675E+04   -0.42584E-02   -0.12007E-02  6016   0.324E-02    0.358E+01
DAV:  22    -0.358919343868E+04    0.70388E-01   -0.72674E-02  6400   0.683E-02    0.357E+01
DAV:  23    -0.358928860319E+04   -0.95165E-01   -0.23013E-01  6144   0.111E-01    0.358E+01
DAV:  24    -0.358908469372E+04    0.20391E+00   -0.37185E-01  6272   0.183E-01    0.354E+01
DAV:  25    -0.358902981378E+04    0.54880E-01   -0.24109E-02  6144   0.836E-02    0.354E+01
DAV:  26    -0.358908138127E+04   -0.51567E-01   -0.40863E-02  6272   0.827E-02    0.342E+01
DAV:  27    -0.358917091835E+04   -0.89537E-01   -0.42232E-02  6016   0.914E-02    0.327E+01
DAV:  28    -0.358884666345E+04    0.32425E+00   -0.90754E-01  6144   0.259E-01    0.308E+01
DAV:  29    -0.358886217339E+04   -0.15510E-01   -0.41197E-02  5632   0.167E-01    0.307E+01
DAV:  30    -0.358903080067E+04   -0.16863E+00   -0.30025E-01  6144   0.122E-01    0.306E+01
DAV:  31    -0.358905975016E+04   -0.28949E-01   -0.38460E-01  6272   0.140E-01    0.307E+01
DAV:  32    -0.358903939781E+04    0.20352E-01   -0.23888E-01  5760   0.173E-01    0.310E+01
DAV:  33    -0.358884114419E+04    0.19825E+00   -0.69181E-01  6144   0.184E-01    0.301E+01
DAV:  34    -0.358891432568E+04   -0.73181E-01   -0.74602E-02  5760   0.121E-01    0.308E+01
DAV:  35    -0.358881442125E+04    0.99904E-01   -0.69200E-02  5888   0.100E-01    0.308E+01
DAV:  36    -0.358881229671E+04    0.21245E-02   -0.20714E-03  5632   0.411E-02    0.308E+01
DAV:  37    -0.358849041000E+04    0.32189E+00   -0.51263E-01  6784   0.257E-01    0.289E+01
DAV:  38    -0.358891240932E+04   -0.42200E+00   -0.25985E-01  5888   0.258E-01    0.296E+01
DAV:  39    -0.358894949969E+04   -0.37090E-01   -0.15637E-02  5632   0.112E-01    0.295E+01
DAV:  40    -0.358921037535E+04   -0.26088E+00   -0.13751E-01  6144   0.184E-01    0.304E+01
DAV:  41    -0.359042892406E+04   -0.12185E+01   -0.20236E+00  6528   0.394E-01    0.315E+01
DAV:  42    -0.359029020669E+04    0.13872E+00   -0.94913E-02  6144   0.252E-01    0.315E+01
DAV:  43    -0.359017364117E+04    0.11657E+00   -0.40583E-01  6912   0.235E-01    0.283E+01
DAV:  44    -0.359090214930E+04   -0.72851E+00   -0.24078E+00  6144   0.331E-01    0.282E+01
DAV:  45    -0.359067389447E+04    0.22825E+00   -0.57126E-01  6144   0.391E-01    0.299E+01
DAV:  46    -0.359005252388E+04    0.62137E+00   -0.77213E-01  6400   0.537E-01    0.271E+01
DAV:  47    -0.358862590638E+04    0.14266E+01   -0.93805E+01  6784   0.342E+00    0.221E+01
DAV:  48    -0.358934646356E+04   -0.72056E+00   -0.76120E+00  6144   0.196E+00    0.172E+01
DAV:  49    -0.359074392110E+04   -0.13975E+01   -0.14385E+00  6784   0.787E-01    0.165E+01
DAV:  50    -0.359120982323E+04   -0.46590E+00   -0.18428E+00  6656   0.116E+00    0.171E+01
DAV:  51    -0.359047261041E+04    0.73721E+00   -0.11870E+00  6400   0.893E-01    0.185E+01
DAV:  52    -0.358928436068E+04    0.11882E+01   -0.24591E+00  6400   0.937E-01    0.216E+01
DAV:  53    -0.358929371929E+04   -0.93586E-02   -0.21881E-01  5888   0.367E-01    0.230E+01
DAV:  54    -0.358904820187E+04    0.24552E+00   -0.25773E-01  6144   0.320E-01    0.237E+01
DAV:  55    -0.358904886297E+04   -0.66110E-03   -0.37224E-01  6400   0.127E-01    0.239E+01
DAV:  56    -0.358906349053E+04   -0.14628E-01   -0.13273E-02  5888   0.894E-02    0.238E+01
DAV:  57    -0.358921833963E+04   -0.15485E+00   -0.14765E+00  6272   0.603E-01    0.235E+01
DAV:  58    -0.358918172438E+04    0.36615E-01   -0.10213E+00  6656   0.444E-01    0.230E+01
DAV:  59    -0.358919792880E+04   -0.16204E-01   -0.45693E-02  5760   0.166E-01    0.229E+01
DAV:  60    -0.358905701835E+04    0.14091E+00   -0.62553E-02  6400   0.105E-01    0.233E+01
DAV:  61    -0.358904306233E+04    0.13956E-01   -0.34743E-03  5632   0.486E-02    0.233E+01
DAV:  62    -0.359032454152E+04   -0.12815E+01   -0.42652E+01  6528   0.385E+00    0.186E+01
DAV:  63    -0.358803836372E+04    0.22862E+01   -0.10199E+01  6272   0.180E+00    0.236E+01
DAV:  64    -0.358779000739E+04    0.24836E+00   -0.40701E-01  6272   0.490E-01    0.235E+01
DAV:  65    -0.358654737534E+04    0.12426E+01   -0.49879E-01  6272   0.325E-01    0.237E+01
DAV:  66    -0.358593894941E+04    0.60843E+00   -0.33259E-01  6016   0.225E-01    0.241E+01
DAV:  67    -0.358523598172E+04    0.70297E+00   -0.36919E-01  6656   0.298E-01    0.243E+01
DAV:  68    -0.358534958316E+04   -0.11360E+00   -0.77578E-02  5632   0.139E-01    0.241E+01
DAV:  69    -0.358543724230E+04   -0.87659E-01   -0.24524E-01  6272   0.180E-01    0.243E+01
DAV:  70    -0.358538392845E+04    0.53314E-01   -0.12038E-01  5888   0.158E-01    0.244E+01
DAV:  71    -0.358540282374E+04   -0.18895E-01   -0.18181E-02  6144   0.693E-02    0.245E+01
DAV:  72    -0.358466414893E+04    0.73867E+00   -0.51620E+00  6400   0.113E+00    0.192E+01
DAV:  73    -0.358695927844E+04   -0.22951E+01   -0.93503E-01  6272   0.629E-01    0.178E+01
DAV:  74    -0.358738619727E+04   -0.42692E+00   -0.43395E+00  6400   0.957E-01    0.159E+01
DAV:  75    -0.358838074293E+04   -0.99455E+00   -0.24543E+00  6656   0.781E-01    0.165E+01
DAV:  76    -0.358960063169E+04   -0.12199E+01   -0.10570E+00  5632   0.555E-01    0.163E+01
DAV:  77    -0.359198479006E+04   -0.23842E+01   -0.85556E+00  6144   0.200E+00    0.138E+01
DAV:  78    -0.359164965424E+04    0.33514E+00   -0.13183E+00  6272   0.924E-01    0.123E+01
DAV:  79    -0.359168834324E+04   -0.38689E-01   -0.84794E-01  6400   0.638E-01    0.127E+01
DAV:  80    -0.359196530526E+04   -0.27696E+00   -0.28329E-01  5632   0.385E-01    0.121E+01
DAV:  81    -0.359199912671E+04   -0.33821E-01   -0.66275E-01  6656   0.317E-01    0.119E+01
DAV:  82    -0.359208689537E+04   -0.87769E-01   -0.25962E+00  6272   0.122E+00    0.106E+01
DAV:  83    -0.359203171335E+04    0.55182E-01   -0.93702E-01  6016   0.630E-01    0.102E+01
DAV:  84    -0.359194400872E+04    0.87705E-01   -0.12422E+00  6784   0.695E-01    0.123E+01
DAV:  85    -0.359205756006E+04   -0.11355E+00   -0.88159E-01  6016   0.397E-01    0.149E+01
DAV:  86    -0.359207387460E+04   -0.16315E-01   -0.23601E-01  6016   0.416E-01    0.146E+01
DAV:  87    -0.359140245341E+04    0.67142E+00   -0.11834E+01  6784   0.125E+00    0.104E+01
DAV:  88    -0.359151215508E+04   -0.10970E+00   -0.10126E+00  6144   0.568E-01    0.105E+01
DAV:  89    -0.359145881512E+04    0.53340E-01   -0.11886E+00  6656   0.341E-01    0.109E+01
DAV:  90    -0.359146201027E+04   -0.31952E-02   -0.14799E-01  6144   0.167E-01    0.109E+01
DAV:  91    -0.359152863440E+04   -0.66624E-01   -0.38563E-01  6400   0.192E-01    0.108E+01
DAV:  92    -0.359171752971E+04   -0.18890E+00   -0.76643E-01  6400   0.556E-01    0.107E+01
DAV:  93    -0.359177214578E+04   -0.54616E-01   -0.50568E-01  6400   0.428E-01    0.107E+01
DAV:  94    -0.359176807025E+04    0.40755E-02   -0.91194E-01  6912   0.526E-01    0.107E+01
DAV:  95    -0.359174304953E+04    0.25021E-01   -0.11057E+00  7040   0.395E-01    0.107E+01
DAV:  96    -0.359177146257E+04   -0.28413E-01   -0.81875E-02  5632   0.200E-01    0.107E+01
DAV:  97    -0.359347588468E+04   -0.17044E+01   -0.24049E+01  6528   0.158E+00    0.163E+01
DAV:  98    -0.359306572474E+04    0.41016E+00   -0.46750E+00  6144   0.104E+00    0.134E+01
DAV:  99    -0.359317782969E+04   -0.11210E+00   -0.12401E-01  5760   0.316E-01    0.129E+01
DAV: 100    -0.359326234731E+04   -0.84518E-01   -0.13235E-01  7168   0.181E-01    0.123E+01
DAV: 101    -0.359313468125E+04    0.12767E+00   -0.15138E+00  6272   0.523E-01    0.110E+01
DAV: 102    -0.359278036027E+04    0.35432E+00   -0.25442E+00  6528   0.796E-01    0.118E+01
DAV: 103    -0.359301168469E+04   -0.23132E+00   -0.66011E-01  6144   0.451E-01    0.114E+01
DAV: 104    -0.359257015911E+04    0.44153E+00   -0.10845E+00  6016   0.539E-01    0.114E+01
DAV: 105    -0.359197543656E+04    0.59472E+00   -0.68954E-01  6272   0.393E-01    0.117E+01
DAV: 106    -0.359195900281E+04    0.16434E-01   -0.30775E-02  5888   0.136E-01    0.117E+01
DAV: 107    -0.359186609445E+04    0.92908E-01   -0.98616E-01  6400   0.738E-01    0.131E+01
DAV: 108    -0.359125443005E+04    0.61166E+00   -0.59404E-01  5760   0.628E-01    0.141E+01
DAV: 109    -0.359123535746E+04    0.19073E-01   -0.61632E-02  6272   0.172E-01    0.143E+01
DAV: 110    -0.359127155910E+04   -0.36202E-01   -0.33205E-02  6016   0.131E-01    0.141E+01
DAV: 111    -0.359138665383E+04   -0.11509E+00   -0.68615E-01  6784   0.508E-01    0.136E+01
DAV: 112    -0.359299781746E+04   -0.16112E+01   -0.64992E+00  6016   0.129E+00    0.116E+01
DAV: 113    -0.359228282904E+04    0.71499E+00   -0.10505E+00  5888   0.761E-01    0.111E+01
DAV: 114    -0.359012564964E+04    0.21572E+01   -0.13045E+00  5760   0.794E-01    0.122E+01
DAV: 115    -0.359051887766E+04   -0.39323E+00   -0.10794E-01  5760   0.245E-01    0.119E+01
DAV: 116    -0.359113000517E+04   -0.61113E+00   -0.14437E-01  5888   0.269E-01    0.113E+01
DAV: 117    -0.359230872208E+04   -0.11787E+01   -0.59203E+00  6016   0.239E+00    0.863E+00
DAV: 118    -0.359250409409E+04   -0.19537E+00   -0.64319E-01  6144   0.643E-01    0.600E+00
DAV: 119    -0.359328666132E+04   -0.78257E+00   -0.57817E+00  6528   0.509E-01    0.150E+01
DAV: 120    -0.359291989186E+04    0.36677E+00   -0.18003E-01  5888   0.365E-01    0.136E+01
DAV: 121    -0.359289690034E+04    0.22992E-01   -0.11994E-02  6144   0.983E-02    0.138E+01
DAV: 122    -0.359317995733E+04   -0.28306E+00   -0.15645E-01  6528   0.201E-01    0.151E+01
DAV: 123    -0.359316611919E+04    0.13838E-01   -0.62196E-03  5632   0.547E-02    0.151E+01
DAV: 124    -0.359292101905E+04    0.24510E+00   -0.83366E-02  6272   0.146E-01    0.132E+01
DAV: 125    -0.359294364950E+04   -0.22630E-01   -0.30971E-03  5632   0.415E-02    0.131E+01
DAV: 126    -0.359292904919E+04    0.14600E-01   -0.78211E-04  6272   0.251E-02    0.126E+01
DAV: 127    -0.359345236202E+04   -0.52331E+00   -0.22910E+00  6912   0.667E-01    0.145E+01
DAV: 128    -0.359350517986E+04   -0.52818E-01   -0.12845E-01  6016   0.183E-01    0.143E+01
DAV: 129    -0.359390877489E+04   -0.40360E+00   -0.37001E-01  6144   0.182E-01    0.142E+01
DAV: 130    -0.359401257815E+04   -0.10380E+00   -0.35195E-01  5760   0.229E-01    0.141E+01
DAV: 131    -0.359389102449E+04    0.12155E+00   -0.21716E-01  6272   0.149E-01    0.141E+01
DAV: 132    -0.359430079692E+04   -0.40977E+00   -0.63563E-01  6016   0.319E-01    0.146E+01
DAV: 133    -0.359433905626E+04   -0.38259E-01   -0.28277E-02  6144   0.104E-01    0.147E+01
DAV: 134    -0.359420384093E+04    0.13522E+00   -0.15538E-01  5760   0.207E-01    0.145E+01
DAV: 135    -0.359371718350E+04    0.48666E+00   -0.50903E-01  5888   0.387E-01    0.141E+01
DAV: 136    -0.359348799947E+04    0.22918E+00   -0.12961E-01  6272   0.210E-01    0.137E+01
DAV: 137    -0.359339590076E+04    0.92099E-01   -0.18725E-01  7040   0.282E-01    0.134E+01
DAV: 138    -0.359354867374E+04   -0.15277E+00   -0.24077E-01  6016   0.261E-01    0.138E+01
DAV: 139    -0.359359117955E+04   -0.42506E-01   -0.17439E-02  6144   0.789E-02    0.139E+01
DAV: 140    -0.359361904850E+04   -0.27869E-01   -0.42037E-02  6272   0.107E-01    0.139E+01
DAV: 141    -0.359359523413E+04    0.23814E-01   -0.53319E-02  6144   0.135E-01    0.138E+01
DAV: 142    -0.359344311353E+04    0.15212E+00   -0.12709E+00  6272   0.552E-01    0.142E+01
DAV: 143    -0.359307991180E+04    0.36320E+00   -0.34378E-01  6144   0.309E-01    0.103E+01
DAV: 144    -0.359271016347E+04    0.36975E+00   -0.77360E-01  5760   0.413E-01    0.935E+00
DAV: 145    -0.359237112197E+04    0.33904E+00   -0.19622E-01  6016   0.279E-01    0.927E+00
DAV: 146    -0.359228446148E+04    0.86660E-01   -0.31090E-02  6016   0.102E-01    0.925E+00
DAV: 147    -0.359216686370E+04    0.11760E+00   -0.58788E-01  5632   0.424E-01    0.111E+01
DAV: 148    -0.359189956042E+04    0.26730E+00   -0.58249E-01  6144   0.300E-01    0.128E+01
DAV: 149    -0.359153287305E+04    0.36669E+00   -0.15657E-01  5760   0.205E-01    0.122E+01
DAV: 150    -0.359150356394E+04    0.29309E-01   -0.87397E-02  5888   0.106E-01    0.108E+01
DAV: 151    -0.359146629167E+04    0.37272E-01   -0.12375E-01  6272   0.136E-01    0.110E+01
DAV: 152    -0.359119014671E+04    0.27614E+00   -0.71354E-01  6016   0.507E-01    0.114E+01
DAV: 153    -0.359107121544E+04    0.11893E+00   -0.38234E-02  5760   0.166E-01    0.114E+01
DAV: 154    -0.359096403793E+04    0.10718E+00   -0.54467E-02  6144   0.153E-01    0.114E+01
DAV: 155    -0.359082335625E+04    0.14068E+00   -0.27778E-01  6144   0.268E-01    0.108E+01
DAV: 156    -0.359093830467E+04   -0.11495E+00   -0.11609E-01  5888   0.190E-01    0.106E+01
DAV: 157    -0.359090206983E+04    0.36235E-01   -0.12727E+00  5888   0.311E-01    0.985E+00
DAV: 158    -0.359094601311E+04   -0.43943E-01   -0.13451E-01  5760   0.202E-01    0.951E+00
DAV: 159    -0.359094359412E+04    0.24190E-02   -0.16868E-01  6400   0.162E-01    0.896E+00
DAV: 160    -0.359098533413E+04   -0.41740E-01   -0.37418E-02  6016   0.854E-02    0.886E+00
DAV: 161    -0.359100137723E+04   -0.16043E-01   -0.45148E-03  5888   0.477E-02    0.861E+00
DAV: 162    -0.359130200375E+04   -0.30063E+00   -0.23634E+00  6016   0.872E-01    0.144E+01
DAV: 163    -0.359133406367E+04   -0.32060E-01   -0.11577E-01  5632   0.265E-01    0.143E+01
DAV: 164    -0.359134728132E+04   -0.13218E-01   -0.46578E-02  6528   0.951E-02    0.135E+01
DAV: 165    -0.359141680884E+04   -0.69528E-01   -0.98244E-02  6016   0.846E-02    0.116E+01
DAV: 166    -0.359145217296E+04   -0.35364E-01   -0.17124E-01  5888   0.228E-01    0.113E+01
DAV: 167    -0.358869682228E+04    0.27554E+01   -0.72794E+00  5504   0.119E+00    0.154E+01
DAV: 168    -0.358990988069E+04   -0.12131E+01   -0.15003E+00  5632   0.522E-01    0.143E+01
DAV: 169    -0.359041276779E+04   -0.50289E+00   -0.47472E-01  6272   0.222E-01    0.148E+01
DAV: 170    -0.359041231773E+04    0.45005E-03   -0.14347E-01  6016   0.148E-01    0.149E+01
DAV: 171    -0.359072412431E+04   -0.31181E+00   -0.25196E-01  6016   0.124E-01    0.150E+01
DAV: 172    -0.359224958306E+04   -0.15255E+01   -0.12316E+01  6144   0.141E+00    0.129E+01
DAV: 173    -0.359303011361E+04   -0.78053E+00   -0.89344E-01  6016   0.751E-01    0.119E+01
DAV: 174    -0.359369731271E+04   -0.66720E+00   -0.64825E-01  6144   0.626E-01    0.111E+01
DAV: 175    -0.359413327396E+04   -0.43596E+00   -0.79998E-01  6656   0.667E-01    0.101E+01
DAV: 176    -0.359409507608E+04    0.38198E-01   -0.20829E+00  6144   0.630E-01    0.146E+01
DAV: 177    -0.359420953140E+04   -0.11446E+00   -0.86375E-01  5760   0.460E-01    0.975E+00
DAV: 178    -0.359427937171E+04   -0.69840E-01   -0.25348E-02  5760   0.153E-01    0.975E+00
DAV: 179    -0.359419697393E+04    0.82398E-01   -0.58428E-02  6144   0.103E-01    0.990E+00
DAV: 180    -0.359409468736E+04    0.10229E+00   -0.10339E-01  6144   0.150E-01    0.975E+00
DAV: 181    -0.359409102051E+04    0.36668E-02   -0.17460E-02  6144   0.958E-02    0.978E+00
DAV: 182    -0.359458744426E+04   -0.49642E+00   -0.20405E+00  6016   0.447E-01    0.141E+01
DAV: 183    -0.359465076745E+04   -0.63323E-01   -0.64928E-01  6272   0.346E-01    0.105E+01
DAV: 184    -0.359469958112E+04   -0.48814E-01   -0.14699E-02  5888   0.110E-01    0.105E+01
DAV: 185    -0.359471668384E+04   -0.17103E-01   -0.63469E-03  6656   0.449E-02    0.102E+01
DAV: 186    -0.359474749806E+04   -0.30814E-01   -0.41433E-01  6144   0.191E-01    0.132E+01
DAV: 187    -0.359481442275E+04   -0.66925E-01   -0.27774E-01  6016   0.244E-01    0.133E+01
DAV: 188    -0.359481172190E+04    0.27008E-02   -0.32316E-02  6016   0.111E-01    0.121E+01
DAV: 189    -0.359477450499E+04    0.37217E-01   -0.18909E-01  6400   0.157E-01    0.105E+01
DAV: 190    -0.359481896121E+04   -0.44456E-01   -0.51769E-02  6144   0.146E-01    0.993E+00
DAV: 191    -0.359494862686E+04   -0.12967E+00   -0.34663E-01  6144   0.315E-01    0.103E+01
DAV: 192    -0.359477268145E+04    0.17595E+00   -0.36989E-01  6144   0.235E-01    0.947E+00
DAV: 193    -0.359482908218E+04   -0.56401E-01   -0.24781E-01  6016   0.255E-01    0.945E+00
DAV: 194    -0.359489071685E+04   -0.61635E-01   -0.31479E-01  5888   0.260E-01    0.955E+00
DAV: 195    -0.359493731380E+04   -0.46597E-01   -0.72474E-01  6400   0.389E-01    0.954E+00
DAV: 196    -0.359505290027E+04   -0.11559E+00   -0.13830E+00  6912   0.492E-01    0.116E+01
DAV: 197    -0.359515271297E+04   -0.99813E-01   -0.21443E-01  6016   0.269E-01    0.145E+01
DAV: 198    -0.359509119784E+04    0.61515E-01   -0.17826E-02  5632   0.143E-01    0.145E+01
DAV: 199    -0.359507474514E+04    0.16453E-01   -0.89082E-04  6656   0.313E-02    0.145E+01
DAV: 200    -0.359501618912E+04    0.58556E-01   -0.16836E-02  6144   0.678E-02    0.145E+01
DAV: 201    -0.359495556150E+04    0.60628E-01   -0.35601E-02  6400   0.891E-02    0.137E+01
DAV: 202    -0.359469103082E+04    0.26453E+00   -0.58234E+00  6528   0.118E+00    0.133E+01
DAV: 203    -0.359508234824E+04   -0.39132E+00   -0.14389E+00  6400   0.780E-01    0.123E+01
DAV: 204    -0.359483030917E+04    0.25204E+00   -0.90880E-01  7040   0.517E-01    0.114E+01
DAV: 205    -0.359485667936E+04   -0.26370E-01   -0.69769E-01  6144   0.443E-01    0.116E+01
DAV: 206    -0.359472919161E+04    0.12749E+00   -0.34919E-01  6656   0.362E-01    0.117E+01
DAV: 207    -0.359554981656E+04   -0.82062E+00   -0.30797E+01  6400   0.239E+00    0.202E+01
DAV: 208    -0.359393991090E+04    0.16099E+01   -0.75959E+00  5888   0.108E+00    0.119E+01
DAV: 209    -0.359393554707E+04    0.43638E-02   -0.31790E-01  6144   0.385E-01    0.113E+01
DAV: 210    -0.359511109657E+04   -0.11755E+01   -0.27669E+00  6400   0.477E-01    0.173E+01
DAV: 211    -0.359499772111E+04    0.11338E+00   -0.87964E-02  5632   0.245E-01    0.173E+01
DAV: 212    -0.359572317794E+04   -0.72546E+00   -0.12116E+00  6400   0.440E-01    0.183E+01
DAV: 213    -0.359563174227E+04    0.91436E-01   -0.78838E-02  5888   0.265E-01    0.191E+01
DAV: 214    -0.359548572914E+04    0.14601E+00   -0.28473E-01  6144   0.238E-01    0.173E+01
DAV: 215    -0.359497580999E+04    0.50992E+00   -0.60702E-01  6272   0.401E-01    0.174E+01
DAV: 216    -0.359412200675E+04    0.85380E+00   -0.12460E+00  5632   0.576E-01    0.175E+01
DAV: 217    -0.359411460331E+04    0.74034E-02   -0.88328E-02  6016   0.244E-01    0.174E+01
DAV: 218    -0.359406219259E+04    0.52411E-01   -0.91974E-03  6144   0.832E-02    0.173E+01
DAV: 219    -0.359411108635E+04   -0.48894E-01   -0.26639E-03  5760   0.570E-02    0.174E+01
DAV: 220    -0.359410855108E+04    0.25353E-02   -0.21583E-04  6016   0.115E-02    0.174E+01
DAV: 221    -0.359414652448E+04   -0.37973E-01   -0.10976E-03  5760   0.344E-02    0.175E+01
DAV: 222    -0.359419166055E+04   -0.45136E-01   -0.24591E-02  6144   0.120E-01    0.173E+01
DAV: 223    -0.359410054346E+04    0.91117E-01   -0.12031E-02  5632   0.829E-02    0.173E+01
DAV: 224    -0.359407219019E+04    0.28353E-01   -0.45932E-03  6016   0.495E-02    0.173E+01
DAV: 225    -0.359390081316E+04    0.17138E+00   -0.78450E-02  5632   0.292E-01    0.130E+01
DAV: 226    -0.359406694157E+04   -0.16613E+00   -0.12016E-01  6272   0.246E-01    0.149E+01
DAV: 227    -0.359435976064E+04   -0.29282E+00   -0.52771E+00  6400   0.691E-01    0.152E+01
DAV: 228    -0.359424017195E+04    0.11959E+00   -0.21246E-01  5632   0.343E-01    0.134E+01
DAV: 229    -0.359427304461E+04   -0.32873E-01   -0.18188E-01  6144   0.314E-01    0.127E+01
DAV: 230    -0.359432084308E+04   -0.47798E-01   -0.38225E-02  5632   0.133E-01    0.106E+01
DAV: 231    -0.359459555568E+04   -0.27471E+00   -0.28659E-01  6144   0.415E-01    0.151E+01
DAV: 232    -0.359506923079E+04   -0.47368E+00   -0.76916E+00  6272   0.718E-01    0.162E+01
DAV: 233    -0.359478145394E+04    0.28778E+00   -0.41924E-01  6272   0.646E-01    0.122E+01
DAV: 234    -0.359499936160E+04   -0.21791E+00   -0.16862E-01  5760   0.313E-01    0.118E+01
DAV: 235    -0.359508579387E+04   -0.86432E-01   -0.23024E-01  6400   0.191E-01    0.116E+01
DAV: 236    -0.359510250126E+04   -0.16707E-01   -0.24083E-02  6400   0.710E-02    0.115E+01
DAV: 237    -0.359553420546E+04   -0.43170E+00   -0.12368E+00  6528   0.574E-01    0.114E+01
DAV: 238    -0.359570157504E+04   -0.16737E+00   -0.48117E-01  6400   0.316E-01    0.112E+01
DAV: 239    -0.359566198956E+04    0.39585E-01   -0.25115E-01  6528   0.258E-01    0.109E+01
DAV: 240    -0.359577356824E+04   -0.11158E+00   -0.27373E-01  6656   0.423E-01    0.107E+01
DAV: 241    -0.359578437260E+04   -0.10804E-01   -0.97506E-02  7040   0.251E-01    0.107E+01
DAV: 242    -0.359638199382E+04   -0.59762E+00   -0.73041E+00  6528   0.163E+00    0.135E+01
DAV: 243    -0.359640569927E+04   -0.23705E-01   -0.33975E-01  5888   0.428E-01    0.135E+01
DAV: 244    -0.359650370052E+04   -0.98001E-01   -0.29334E-02  6400   0.138E-01    0.135E+01
DAV: 245    -0.359656458731E+04   -0.60887E-01   -0.11747E-02  6400   0.828E-02    0.136E+01
DAV: 246    -0.359675895455E+04   -0.19437E+00   -0.11110E-01  6272   0.243E-01    0.137E+01
DAV: 247    -0.359865203983E+04   -0.18931E+01   -0.66204E+00  6784   0.816E-01    0.255E+01
DAV: 248    -0.359862380936E+04    0.28230E-01   -0.22242E-01  5760   0.363E-01    0.257E+01
DAV: 249    -0.359845614297E+04    0.16767E+00   -0.42028E-02  6144   0.159E-01    0.252E+01
DAV: 250    -0.359831598383E+04    0.14016E+00   -0.13606E-02  6016   0.818E-02    0.254E+01
DAV: 251    -0.359841812886E+04   -0.10215E+00   -0.16033E-01  6784   0.140E-01    0.256E+01
DAV: 252    -0.359793711287E+04    0.48102E+00   -0.28882E-01  6528   0.272E-01    0.254E+01
DAV: 253    -0.359672747589E+04    0.12096E+01   -0.18871E+00  6528   0.541E-01    0.185E+01
DAV: 254    -0.359671765646E+04    0.98194E-02   -0.94177E-02  5632   0.282E-01    0.184E+01
DAV: 255    -0.359680653275E+04   -0.88876E-01   -0.14257E-01  6400   0.191E-01    0.185E+01
DAV: 256    -0.359686690267E+04   -0.60370E-01   -0.43336E-02  5760   0.797E-02    0.185E+01
DAV: 257    -0.359653876235E+04    0.32814E+00   -0.64376E-02  6272   0.185E-01    0.179E+01
DAV: 258    -0.359643022923E+04    0.10853E+00   -0.17774E-02  6272   0.743E-02    0.175E+01
DAV: 259    -0.359620980228E+04    0.22043E+00   -0.16934E-02  6400   0.120E-01    0.155E+01
DAV: 260    -0.359589408771E+04    0.31571E+00   -0.82686E-02  6400   0.355E-01    0.132E+01
DAV: 261    -0.359596973797E+04   -0.75650E-01   -0.36413E-02  5632   0.172E-01    0.132E+01
DAV: 262    -0.359555964231E+04    0.41010E+00   -0.35037E-01  6528   0.479E-01    0.124E+01
DAV: 263    -0.359528814212E+04    0.27150E+00   -0.44293E-01  6144   0.511E-01    0.128E+01
DAV: 264    -0.359503387652E+04    0.25427E+00   -0.16112E-01  6528   0.279E-01    0.129E+01
DAV: 265    -0.359488986849E+04    0.14401E+00   -0.68608E-02  6912   0.161E-01    0.131E+01
DAV: 266    -0.359473466819E+04    0.15520E+00   -0.12997E-01  6912   0.151E-01    0.134E+01
DAV: 267    -0.359440389982E+04    0.33077E+00   -0.98218E-02  6272   0.315E-01    0.133E+01
DAV: 268    -0.359464162725E+04   -0.23773E+00   -0.33892E-02  6144   0.192E-01    0.130E+01
DAV: 269    -0.359484689206E+04   -0.20526E+00   -0.52393E-02  6528   0.283E-01    0.127E+01
DAV: 270    -0.359487550724E+04   -0.28615E-01   -0.16633E-02  6656   0.108E-01    0.126E+01
DAV: 271    -0.359493324679E+04   -0.57740E-01   -0.21615E-02  6528   0.134E-01    0.123E+01
DAV: 272    -0.359474694717E+04    0.18630E+00   -0.97943E+00  6656   0.172E+00    0.207E+01
DAV: 273    -0.359443762560E+04    0.30932E+00   -0.30314E-01  5888   0.435E-01    0.168E+01
DAV: 274    -0.359532067233E+04   -0.88305E+00   -0.48723E+00  6912   0.132E+00    0.119E+01
DAV: 275    -0.359530622631E+04    0.14446E-01   -0.16402E-01  5632   0.340E-01    0.120E+01
DAV: 276    -0.359505576733E+04    0.25046E+00   -0.34891E-02  6400   0.192E-01    0.122E+01
DAV: 277    -0.359773901003E+04   -0.26832E+01   -0.33523E+01  6528   0.336E+00    0.281E+01
DAV: 278    -0.359468441864E+04    0.30546E+01   -0.57638E+01  6656   0.280E+00    0.110E+01
DAV: 279    -0.359534801915E+04   -0.66360E+00   -0.86553E+00  6272   0.168E+00    0.167E+01
DAV: 280    -0.359535506874E+04   -0.70496E-02   -0.47897E-01  5888   0.493E-01    0.165E+01
DAV: 281    -0.359531743230E+04    0.37636E-01   -0.14021E-02  6656   0.884E-02    0.169E+01
DAV: 282    -0.359516493404E+04    0.15250E+00   -0.16639E+00  6912   0.274E-01    0.142E+01
DAV: 283    -0.359499091264E+04    0.17402E+00   -0.54308E-02  5760   0.242E-01    0.144E+01
DAV: 284    -0.359519280113E+04   -0.20189E+00   -0.91920E-02  6144   0.181E-01    0.139E+01
DAV: 285    -0.359525467353E+04   -0.61872E-01   -0.61648E-02  6272   0.169E-01    0.135E+01
DAV: 286    -0.359526945558E+04   -0.14782E-01   -0.11481E-01  6272   0.150E-01    0.132E+01
DAV: 287    -0.359539097041E+04   -0.12151E+00   -0.25426E-01  6016   0.445E-01    0.144E+01
DAV: 288    -0.359544130469E+04   -0.50334E-01   -0.49412E-02  5632   0.221E-01    0.139E+01
DAV: 289    -0.359548171714E+04   -0.40412E-01   -0.24818E-01  6016   0.296E-01    0.136E+01
DAV: 290    -0.359506289210E+04    0.41883E+00   -0.68927E-01  6144   0.411E-01    0.148E+01
DAV: 291    -0.359505511955E+04    0.77726E-02   -0.37512E-02  5888   0.160E-01    0.150E+01
DAV: 292    -0.359607906652E+04   -0.10239E+01   -0.38557E-01  6272   0.627E-01    0.143E+01
DAV: 293    -0.359638950509E+04   -0.31044E+00   -0.64970E-01  6528   0.602E-01    0.132E+01
DAV: 294    -0.359661397453E+04   -0.22447E+00   -0.83590E-02  5760   0.268E-01    0.131E+01
DAV: 295    -0.359670441715E+04   -0.90443E-01   -0.22542E-02  6272   0.124E-01    0.132E+01
DAV: 296    -0.359679711527E+04   -0.92698E-01   -0.21868E-02  6656   0.131E-01    0.129E+01
DAV: 297    -0.359729613882E+04   -0.49902E+00   -0.26590E+00  6528   0.785E-01    0.187E+01
DAV: 298    -0.359729514153E+04    0.99730E-03   -0.94838E-02  5760   0.247E-01    0.187E+01
DAV: 299    -0.359728809869E+04    0.70428E-02   -0.12471E-02  6784   0.894E-02    0.195E+01
DAV: 300    -0.359690221229E+04    0.38589E+00   -0.21271E-01  6784   0.229E-01    0.160E+01
DAV: 301    -0.359690426996E+04   -0.20577E-02   -0.12909E+00  6144   0.543E-01    0.124E+01
DAV: 302    -0.359629109129E+04    0.61318E+00   -0.26900E-01  6528   0.666E-01    0.110E+01
DAV: 303    -0.359639183706E+04   -0.10075E+00   -0.16115E-01  6144   0.333E-01    0.105E+01
DAV: 304    -0.359643030888E+04   -0.38472E-01   -0.51501E-02  6784   0.217E-01    0.879E+00
DAV: 305    -0.359648624483E+04   -0.55936E-01   -0.34037E-02  6400   0.145E-01    0.893E+00
DAV: 306    -0.359652678003E+04   -0.40535E-01   -0.74782E-02  6784   0.151E-01    0.858E+00
DAV: 307    -0.359605919187E+04    0.46759E+00   -0.12448E+00  6272   0.691E-01    0.127E+01
DAV: 308    -0.359599872578E+04    0.60466E-01   -0.99513E-02  5760   0.270E-01    0.125E+01
DAV: 309    -0.359578651025E+04    0.21222E+00   -0.11019E-01  6912   0.236E-01    0.125E+01
DAV: 310    -0.359569943654E+04    0.87074E-01   -0.46835E-02  6912   0.192E-01    0.123E+01
DAV: 311    -0.359571764053E+04   -0.18204E-01   -0.31146E-02  6656   0.222E-01    0.122E+01
DAV: 312    -0.359563704862E+04    0.80592E-01   -0.90700E-01  6784   0.639E-01    0.808E+00
DAV: 313    -0.359561344095E+04    0.23608E-01   -0.31239E-01  5632   0.492E-01    0.825E+00
DAV: 314    -0.359549190101E+04    0.12154E+00   -0.18403E-01  6144   0.331E-01    0.796E+00
DAV: 315    -0.359542951804E+04    0.62383E-01   -0.97965E-02  6912   0.194E-01    0.685E+00
DAV: 316    -0.359553752692E+04   -0.10801E+00   -0.10456E-01  6400   0.186E-01    0.102E+01
DAV: 317    -0.359620765001E+04   -0.67012E+00   -0.11262E+00  6400   0.891E-01    0.111E+01
DAV: 318    -0.359603711732E+04    0.17053E+00   -0.19178E-01  5888   0.373E-01    0.112E+01
DAV: 319    -0.359591478172E+04    0.12234E+00   -0.51800E-02  6656   0.192E-01    0.112E+01
DAV: 320    -0.359578777220E+04    0.12701E+00   -0.55035E-02  6656   0.209E-01    0.111E+01
DAV: 321    -0.359570459833E+04    0.83174E-01   -0.90204E-02  6784   0.266E-01    0.109E+01
[...]
 bond charge predicted
       N       E                     dE             d eps       ncg     rms          rms(c)
DAV:   1    -0.360155644257E+04   -0.21767E-03   -0.68500E-02  5504   0.306E-01    0.394E-01
DAV:   2    -0.360156634009E+04   -0.98975E-02   -0.14905E-02  6144   0.177E-01    0.373E+00
DAV:   3    -0.360154449948E+04    0.21841E-01   -0.14017E-02  5760   0.172E-01    0.265E-01
DAV:   4    -0.360155514944E+04   -0.10650E-01   -0.33888E-03  5760   0.543E-02    0.180E-01
DAV:   5    -0.360155651930E+04   -0.13699E-02   -0.57156E-04  5632   0.304E-02    0.170E-01
DAV:   6    -0.360155645475E+04    0.64547E-04   -0.38664E-05  5632   0.874E-03    0.549E-02
DAV:   7    -0.360155647811E+04   -0.23352E-04   -0.17450E-05  5632   0.610E-03    0.568E-02
DAV:   8    -0.360155648687E+04   -0.87606E-05   -0.15807E-05  5760   0.498E-03    0.387E-02
DAV:   9    -0.360155648389E+04    0.29722E-05   -0.95583E-07  5248   0.138E-03    0.113E-02
DAV:  10    -0.360155648684E+04   -0.29434E-05   -0.89400E-07  4736   0.985E-04    0.463E-03
DAV:  11    -0.360155648756E+04   -0.71809E-06   -0.83716E-07  4864   0.768E-04
 augmentation electrons   1804.91694410943     
 soft         electrons  0.000000000000000E+000
 total        electrons   1804.91694410943     
 augmentation electrons -6.020996745647222E-002
 soft         electrons  0.000000000000000E+000
 total        electrons -6.020996745647222E-002
 augmentation electrons   1917.05049163988     
 soft         electrons  0.000000000000000E+000
 total        electrons   1917.05049163988     
 augmentation electrons   1860.42745969788     
 soft         electrons  0.000000000000000E+000
 total        electrons   1860.42745969788     
 augmentation electrons   56.2699910005472     
 soft         electrons   1748.64693125266     
 total        electrons   1804.91692225320     
 augmentation electrons   28.2201593761495     
 soft         electrons   1748.64693125266     
 total        electrons   45.2165572613437     
 translations:           0           1           0
 131 F= -.36391680E+04 E0= -.36391602E+04  d E =-.102736E-02  mag=    45.2768
 curvature:  -1.76 expect dE=-0.515E-02 dE for cont linesearch -0.149E-08
 trial: gam= 0.97573 g(F)=  0.292E-02 g(S)=  0.000E+00 ort = 0.394E-05 (trialstep = 0.297E+00)
 search vector abs. value=  0.205E-01
 bond charge predicted
       N       E                     dE             d eps       ncg     rms          rms(c)
DAV:   1    -0.360155650614E+04   -0.19307E-04   -0.10168E-01  5504   0.375E-01    0.163E-01
DAV:   2    -0.360155748701E+04   -0.98086E-03   -0.51634E-03  6272   0.775E-02    0.807E-01
DAV:   3    -0.360155621841E+04    0.12686E-02   -0.14133E-03  5632   0.542E-02    0.657E-02
DAV:   4    -0.360155689761E+04   -0.67920E-03   -0.29312E-04  5248   0.175E-02    0.810E-02
DAV:   5    -0.360155695430E+04   -0.56694E-04   -0.48399E-05  5632   0.114E-02    0.164E-01
DAV:   6    -0.360155689109E+04    0.63214E-04   -0.42863E-05  5760   0.107E-02    0.240E-02
DAV:   7    -0.360155692563E+04   -0.34548E-04   -0.14955E-05  5760   0.431E-03    0.504E-02
DAV:   8    -0.360155691895E+04    0.66834E-05   -0.42199E-06  5632   0.307E-03    0.333E-03
DAV:   9    -0.360155692262E+04   -0.36719E-05   -0.16502E-06  5248   0.123E-03    0.341E-03
DAV:  10    -0.360155692297E+04   -0.35029E-06   -0.53644E-07  5248   0.462E-04
 augmentation electrons   1804.91635939916     
 soft         electrons  0.000000000000000E+000
 total        electrons   1804.91635939916     
 augmentation electrons -6.009667537693029E-002
 soft         electrons  0.000000000000000E+000
 total        electrons -6.009667537693029E-002
 augmentation electrons   1917.29465475139     
 soft         electrons  0.000000000000000E+000
 total        electrons   1917.29465475139     
 augmentation electrons   1860.67162280939     
 soft         electrons  0.000000000000000E+000
 total        electrons   1860.67162280939     
 augmentation electrons   56.2692511345004     
 soft         electrons   1748.64708629689     
 total        electrons   1804.91633743139     
 augmentation electrons   28.2201052556646     
 soft         electrons   1748.64708629689     
 total        electrons   45.2161939449139     
 translations:           0           1           0
 132 F= -.36391686E+04 E0= -.36391608E+04  d E =-.603058E-03  mag=    45.2763
 trial-energy change:   -0.000603  1 .order   -0.000595   -0.000868   -0.000323
 step:   0.4529(harm=  0.4730)  dis= 0.00212  next Energy= -3639.168722 (dE=-0.689E-03)
 bond charge predicted
       N       E                     dE             d eps       ncg     rms          rms(c)
DAV:   1    -0.360155681762E+04    0.10500E-03   -0.28126E-02  5504   0.197E-01    0.714E-02
DAV:   2    -0.360155697517E+04   -0.15755E-03   -0.12776E-03  6144   0.325E-02    0.195E-01
DAV:   3    -0.360155690202E+04    0.73146E-04   -0.17297E-04  5760   0.184E-02    0.672E-02
DAV:   4    -0.360155693787E+04   -0.35846E-04   -0.29305E-05  5632   0.755E-03    0.289E-02
DAV:   5    -0.360155694069E+04   -0.28221E-05   -0.84924E-06  6016   0.414E-03    0.652E-02
DAV:   6    -0.360155693239E+04    0.83042E-05   -0.11328E-05  5632   0.517E-03    0.310E-02
DAV:   7    -0.360155693647E+04   -0.40812E-05   -0.39308E-06  5760   0.247E-03    0.130E-02
DAV:   8    -0.360155693642E+04    0.45038E-07   -0.51257E-07  5120   0.795E-04
 augmentation electrons   1804.91606079386     
 soft         electrons  0.000000000000000E+000
 total        electrons   1804.91606079386     
 augmentation electrons -6.006425450815338E-002
 soft         electrons  0.000000000000000E+000
 total        electrons -6.006425450815338E-002
 augmentation electrons   1917.42625526317     
 soft         electrons  0.000000000000000E+000
 total        electrons   1917.42625526317     
 augmentation electrons   1860.80322332117     
 soft         electrons  0.000000000000000E+000
 total        electrons   1860.80322332117     
 augmentation electrons   56.2687912770843     
 soft         electrons   1748.64724749332     
 total        electrons   1804.91603877041     
 augmentation electrons   28.2199368659156     
 soft         electrons   1748.64724749332     
 total        electrons   45.2156679067196     
 translations:           0           1           0
 133 F= -.36391687E+04 E0= -.36391610E+04  d E =-.717226E-03  mag=    45.2757
 curvature:  -1.63 expect dE=-0.393E-02 dE for cont linesearch -0.256E-05
 trial: gam= 0.65962 g(F)=  0.240E-02 g(S)=  0.000E+00 ort = 0.179E-03 (trialstep = 0.328E+00)
 search vector abs. value=  0.115E-01
 bond charge predicted
       N       E                     dE             d eps       ncg     rms          rms(c)
DAV:   1    -0.360155719110E+04   -0.25463E-03   -0.73597E-02  5632   0.325E-01    0.279E-01
DAV:   2    -0.360156018272E+04   -0.29916E-02   -0.86622E-03  6272   0.131E-01    0.135E+00
DAV:   3    -0.360155600313E+04    0.41796E-02   -0.48290E-03  5760   0.998E-02    0.387E-01
DAV:   4    -0.360155697319E+04   -0.97006E-03   -0.83236E-04  5632   0.316E-02    0.285E-01
DAV:   5    -0.360155740604E+04   -0.43286E-03   -0.42668E-04  5504   0.285E-02    0.104E-01
DAV:   6    -0.360155743336E+04   -0.27321E-04   -0.38191E-05  5632   0.803E-03    0.939E-02
DAV:   7    -0.360155741015E+04    0.23217E-04   -0.15956E-05  6016   0.730E-03    0.705E-02
DAV:   8    -0.360155742606E+04   -0.15912E-04   -0.17498E-05  5760   0.544E-03    0.539E-02
DAV:   9    -0.360155741931E+04    0.67495E-05   -0.13506E-06  4992   0.219E-03    0.603E-03
DAV:  10    -0.360155742544E+04   -0.61296E-05   -0.22169E-06  5120   0.149E-03    0.367E-03
DAV:  11    -0.360155742624E+04   -0.79573E-06   -0.52373E-07  4480   0.683E-04
 augmentation electrons   1804.91486035151     
 soft         electrons  0.000000000000000E+000
 total        electrons   1804.91486035151     
 augmentation electrons -5.999546202681957E-002
 soft         electrons  0.000000000000000E+000
 total        electrons -5.999546202681957E-002
 augmentation electrons   1917.79680153947     
 soft         electrons  0.000000000000000E+000
 total        electrons   1917.79680153947     
 augmentation electrons   1861.17376959747     
 soft         electrons  0.000000000000000E+000
 total        electrons   1861.17376959747     
 augmentation electrons   56.2676914902160     
 soft         electrons   1748.64714668353     
 total        electrons   1804.91483817375     
 augmentation electrons   28.2201479159495     
 soft         electrons   1748.64714668353     
 total        electrons   45.2158680968703     
 translations:           0           1           0
 134 F= -.36391693E+04 E0= -.36391615E+04  d E =-.561705E-03  mag=    45.2759
 trial-energy change:   -0.000562  1 .order   -0.000580   -0.000827   -0.000334
 step:   0.5498(harm=  0.5498)  dis= 0.00153  next Energy= -3639.169443 (dE=-0.693E-03)
 bond charge predicted
       N       E                     dE             d eps       ncg     rms          rms(c)
DAV:   1    -0.360155733209E+04    0.93351E-04   -0.33594E-02  5632   0.219E-01    0.937E-02
DAV:   2    -0.360155765706E+04   -0.32497E-03   -0.17613E-03  6272   0.453E-02    0.407E-01
DAV:   3    -0.360155728334E+04    0.37372E-03   -0.44340E-04  5504   0.302E-02    0.440E-02
DAV:   4    -0.360155746282E+04   -0.17948E-03   -0.71236E-05  5504   0.862E-03    0.701E-02
DAV:   5    -0.360155748530E+04   -0.22478E-04   -0.26974E-05  5632   0.828E-03    0.101E-01
DAV:   6    -0.360155746283E+04    0.22463E-04   -0.15354E-05  5632   0.610E-03    0.212E-02
DAV:   7    -0.360155747382E+04   -0.10988E-04   -0.50475E-06  5888   0.272E-03    0.401E-02
DAV:   8    -0.360155747329E+04    0.53603E-06   -0.44273E-06  5632   0.303E-03
 augmentation electrons   1804.91402245824     
 soft         electrons  0.000000000000000E+000
 total        electrons   1804.91402245824     
 augmentation electrons -5.998645461916598E-002
 soft         electrons  0.000000000000000E+000
 total        electrons -5.998645461916598E-002
 augmentation electrons   1918.05342777132     
 soft         electrons  0.000000000000000E+000
 total        electrons   1918.05342777132     
 augmentation electrons   1861.43039582932     
 soft         electrons  0.000000000000000E+000
 total        electrons   1861.43039582932     
 augmentation electrons   56.2669412793251     
 soft         electrons   1748.64705890076     
 total        electrons   1804.91400018009     
 augmentation electrons   28.2203221066851     
 soft         electrons   1748.64705890076     
 total        electrons   45.2161622668915     
 translations:           0           1           0
 135 F= -.36391694E+04 E0= -.36391616E+04  d E =-.649663E-03  mag=    45.2761
 curvature:  -1.26 expect dE=-0.334E-02 dE for cont linesearch -0.146E-06
 trial: gam= 1.14859 g(F)=  0.265E-02 g(S)=  0.000E+00 ort =-0.366E-04 (trialstep = 0.242E+00)
 search vector abs. value=  0.178E-01
 bond charge predicted
       N       E                     dE             d eps       ncg     rms          rms(c)
DAV:   1    -0.360155766744E+04   -0.19362E-03   -0.59633E-02  5632   0.298E-01    0.186E-01
DAV:   2    -0.360155927638E+04   -0.16089E-02   -0.46863E-03  6144   0.876E-02    0.128E+00
DAV:   3    -0.360155619648E+04    0.30799E-02   -0.25477E-03  5760   0.748E-02    0.102E-01
DAV:   4    -0.360155775680E+04   -0.15603E-02   -0.60396E-04  5248   0.235E-02    0.930E-02
DAV:   5    -0.360155795358E+04   -0.19678E-03   -0.97813E-05  5632   0.147E-02    0.164E-01
DAV:   6    -0.360155788733E+04    0.66250E-04   -0.32726E-05  5632   0.954E-03    0.115E-02
DAV:   7    -0.360155792296E+04   -0.35630E-04   -0.13804E-05  5760   0.426E-03    0.609E-02
DAV:   8    -0.360155791544E+04    0.75145E-05   -0.75571E-06  5632   0.385E-03    0.108E-02
DAV:   9    -0.360155791965E+04   -0.42101E-05   -0.13921E-06  5248   0.112E-03    0.404E-03
DAV:  10    -0.360155792059E+04   -0.94170E-06   -0.90708E-07  4992   0.670E-04
 augmentation electrons   1804.91305577489     
 soft         electrons  0.000000000000000E+000
 total        electrons   1804.91305577489     
 augmentation electrons -5.989789891493313E-002
 soft         electrons  0.000000000000000E+000
 total        electrons -5.989789891493313E-002
 augmentation electrons   1918.61609026731     
 soft         electrons  0.000000000000000E+000
 total        electrons   1918.61609026731     
 augmentation electrons   1861.99305832531     
 soft         electrons  0.000000000000000E+000
 total        electrons   1861.99305832531     
 augmentation electrons   56.2660591291367     
 soft         electrons   1748.64697422949     
 total        electrons   1804.91303335863     
 augmentation electrons   28.2202412295631     
 soft         electrons   1748.64697422949     
 total        electrons   45.2153522694492     
 translations:           0           1           0
 136 F= -.36391700E+04 E0= -.36391622E+04  d E =-.563839E-03  mag=    45.2753
 trial-energy change:   -0.000564  1 .order   -0.000493   -0.000630   -0.000355
 step:   0.3395(harm=  0.5528)  dis= 0.00106  next Energy= -3639.170040 (dE=-0.641E-03)
 bond charge predicted
       N       E                     dE             d eps       ncg     rms          rms(c)
DAV:   1    -0.360155800045E+04   -0.80795E-04   -0.97984E-03  5632   0.121E-01    0.138E-01
DAV:   2    -0.360155883740E+04   -0.83695E-03   -0.19163E-03  6272   0.632E-02    0.807E-01
DAV:   3    -0.360155737192E+04    0.14655E-02   -0.13293E-03  5760   0.533E-02    0.175E-01
DAV:   4    -0.360155787065E+04   -0.49873E-03   -0.22829E-04  5632   0.155E-02    0.105E-01
DAV:   5    -0.360155802594E+04   -0.15529E-03   -0.97390E-05  5632   0.131E-02    0.507E-02
DAV:   6    -0.360155802464E+04    0.13025E-05   -0.58613E-06  5632   0.310E-03    0.377E-02
DAV:   7    -0.360155802177E+04    0.28700E-05   -0.39454E-06  5888   0.286E-03    0.252E-02
DAV:   8    -0.360155802575E+04   -0.39773E-05   -0.35889E-06  5632   0.215E-03    0.246E-02
DAV:   9    -0.360155802436E+04    0.13822E-05   -0.57445E-07  4864   0.961E-04    0.632E-03
DAV:  10    -0.360155802560E+04   -0.12379E-05   -0.11962E-06  5120   0.685E-04    0.216E-03
DAV:  11    -0.360155802610E+04   -0.49475E-06   -0.37814E-07  4608   0.460E-04
 augmentation electrons   1804.91264159927     
 soft         electrons  0.000000000000000E+000
 total        electrons   1804.91264159927     
 augmentation electrons -5.987948923017093E-002
 soft         electrons  0.000000000000000E+000
 total        electrons -5.987948923017093E-002
 augmentation electrons   1918.84667183362     
 soft         electrons  0.000000000000000E+000
 total        electrons   1918.84667183362     
 augmentation electrons   1862.22363989162     
 soft         electrons  0.000000000000000E+000
 total        electrons   1862.22363989162     
 augmentation electrons   56.2657282187124     
 soft         electrons   1748.64689090954     
 total        electrons   1804.91261912825     
 augmentation electrons   28.2203835386494     
 soft         electrons   1748.64689090954     
 total        electrons   45.2155093576799     
 translations:           0           1           0
 137 F= -.36391701E+04 E0= -.36391623E+04  d E =-.699042E-03  mag=    45.2754
 curvature:  -1.00 expect dE=-0.178E-02 dE for cont linesearch -0.526E-04
 ZBRENT: increasing intervall
 opt :   0.5353  next Energy= -3639.170190 (dE=-0.790E-03)
 bond charge predicted
       N       E                     dE             d eps       ncg     rms          rms(c)
DAV:   1    -0.360155790579E+04    0.11981E-03   -0.39140E-02  5632   0.241E-01    0.817E-02
DAV:   2    -0.360155809704E+04   -0.19125E-03   -0.18711E-03  6144   0.339E-02    0.726E-02
DAV:   3    -0.360155812704E+04   -0.30000E-04   -0.14667E-04  6144   0.164E-02    0.180E-01
DAV:   4    -0.360155806534E+04    0.61694E-04   -0.68884E-05  5760   0.128E-02    0.228E-02
DAV:   5    -0.360155809515E+04   -0.29802E-04   -0.18349E-05  5760   0.453E-03    0.432E-02
DAV:   6    -0.360155810320E+04   -0.80562E-05   -0.12939E-05  5760   0.561E-03    0.858E-02
DAV:   7    -0.360155808691E+04    0.16294E-04   -0.85002E-06  5632   0.465E-03    0.119E-02
DAV:   8    -0.360155809484E+04   -0.79302E-05   -0.20011E-06  5376   0.159E-03    0.895E-03
DAV:   9    -0.360155809641E+04   -0.15691E-05   -0.15720E-06  4992   0.128E-03    0.294E-03
DAV:  10    -0.360155809675E+04   -0.33942E-06   -0.14509E-06  4992   0.511E-04
 augmentation electrons   1804.91179710798     
 soft         electrons  0.000000000000000E+000
 total        electrons   1804.91179710798     
 augmentation electrons -5.986683849309717E-002
 soft         electrons  0.000000000000000E+000
 total        electrons -5.986683849309717E-002
 augmentation electrons   1919.31198061028     
 soft         electrons  0.000000000000000E+000
 total        electrons   1919.31198061028     
 augmentation electrons   1862.68894866828     
 soft         electrons  0.000000000000000E+000
 total        electrons   1862.68894866828     
 augmentation electrons   56.2649280160752     
 soft         electrons   1748.64684651396     
 total        electrons   1804.91177453004     
 augmentation electrons   28.2202328752921     
 soft         electrons   1748.64684651396     
 total        electrons   45.2147290096925     
 translations:           0           1           0
 138 F= -.36391703E+04 E0= -.36391625E+04  d E =-.867116E-03  mag=    45.2746
 curvature:  -1.74 expect dE=-0.478E-02 dE for cont linesearch -0.574E-06
 trial: gam= 0.85961 g(F)=  0.276E-02 g(S)=  0.000E+00 ort = 0.767E-04 (trialstep = 0.300E+00)
 search vector abs. value=  0.160E-01
 bond charge predicted
       N       E                     dE             d eps       ncg     rms          rms(c)
DAV:   1    -0.360155839779E+04   -0.30139E-03   -0.84018E-02  5632   0.352E-01    0.307E-01
DAV:   2    -0.360156191288E+04   -0.35151E-02   -0.10423E-02  6272   0.144E-01    0.144E+00
DAV:   3    -0.360155715080E+04    0.47621E-02   -0.57154E-03  5760   0.109E-01    0.434E-01
DAV:   4    -0.360155815256E+04   -0.10018E-02   -0.97810E-04  5632   0.346E-02    0.310E-01
DAV:   5    -0.360155865584E+04   -0.50328E-03   -0.50067E-04  5504   0.309E-02    0.110E-01
DAV:   6    -0.360155868901E+04   -0.33168E-04   -0.45112E-05  5632   0.861E-03    0.100E-01
DAV:   7    -0.360155866403E+04    0.24982E-04   -0.19562E-05  6016   0.804E-03    0.808E-02
DAV:   8    -0.360155867999E+04   -0.15966E-04   -0.21044E-05  5760   0.602E-03    0.583E-02
DAV:   9    -0.360155867283E+04    0.71572E-05   -0.17853E-06  4992   0.239E-03    0.546E-03
DAV:  10    -0.360155868045E+04   -0.76142E-05   -0.31644E-06  5504   0.171E-03    0.375E-03
DAV:  11    -0.360155868143E+04   -0.98193E-06   -0.75571E-07  4864   0.718E-04
 augmentation electrons   1804.91057303388     
 soft         electrons  0.000000000000000E+000
 total        electrons   1804.91057303388     
 augmentation electrons -5.981813569630401E-002
 soft         electrons  0.000000000000000E+000
 total        electrons -5.981813569630401E-002
 augmentation electrons   1920.17664813476     
 soft         electrons  0.000000000000000E+000
 total        electrons   1920.17664813476     
 augmentation electrons   1863.55361619276     
 soft         electrons  0.000000000000000E+000
 total        electrons   1863.55361619276     
 augmentation electrons   56.2638342951899     
 soft         electrons   1748.64671603319     
 total        electrons   1804.91055032838     
 augmentation electrons   28.2204643281609     
 soft         electrons   1748.64671603319     
 total        electrons   45.2148722109950     
 translations:           0           1           0
 139 F= -.36391709E+04 E0= -.36391631E+04  d E =-.636636E-03  mag=    45.2747
 trial-energy change:   -0.000637  1 .order   -0.000603   -0.000848   -0.000358
 step:   0.4377(harm=  0.5204)  dis= 0.00122  next Energy= -3639.170988 (dE=-0.722E-03)
 reached required accuracy - stopping structural energy minimisation
 writing wavefunctions
