 ----------------------------------------------------
    OOO  PPPP  EEEEE N   N M   M PPPP
   O   O P   P E     NN  N MM MM P   P
   O   O PPPP  EEEEE N N N M M M PPPP   -- VERSION
   O   O P     E     N  NN M   M P
    OOO  P     EEEEE N   N M   M P
 ----------------------------------------------------
 running  512 mpi-ranks, with    1 threads/rank
 distrk:  each k-point on  512 cores,    1 groups
 distr:  one band on    4 cores,  128 groups
 vasp.6.3.2 27Jun22 (build Nov 12 2024 19:13:04) complex                        
  
 POSCAR found type information on POSCAR MnBrN C H 
 POSCAR found :  5 types and     636 ions
 scaLAPACK will be used
 LDA part: xc-table for Pade appr. of Perdew
 POSCAR, INCAR and KPOINTS ok, starting setup
 FFT: planning ... GRIDC
 FFT: planning ... GRID_SOFT
 FFT: planning ... GRID
 WAVECAR not read
 entering main loop
       N       E                     dE             d eps       ncg     rms          rms(c)
DAV:   1     0.986927761738E+04    0.98693E+04   -0.80682E+05  5376   0.120E+03
DAV:   2    -0.261334519013E+04   -0.12483E+05   -0.12037E+05  6272   0.260E+02
DAV:   3    -0.387512371496E+04   -0.12618E+04   -0.12487E+04  6400   0.876E+01
DAV:   4    -0.390949250906E+04   -0.34369E+02   -0.34164E+02  6784   0.163E+01
DAV:   5    -0.391042770272E+04   -0.93519E+00   -0.93407E+00  6656   0.260E+00    0.184E+02
DAV:   6    -0.481172232853E+04   -0.90129E+03   -0.55777E+03  6400   0.492E+01    0.476E+02
DAV:   7    -0.423088669994E+04    0.58084E+03   -0.85890E+02  6272   0.236E+01    0.256E+02
DAV:   8    -0.354491080850E+04    0.68598E+03   -0.10153E+03  6400   0.420E+01    0.970E+01
DAV:   9    -0.380043157153E+04   -0.25552E+03   -0.15915E+03  6400   0.161E+01    0.153E+02
DAV:  10    -0.357083204692E+04    0.22960E+03   -0.71678E+02  6016   0.213E+01    0.717E+01
DAV:  11    -0.359267843747E+04   -0.21846E+02   -0.57632E+01  6144   0.434E+00    0.609E+01
DAV:  12    -0.366649148706E+04   -0.73813E+02   -0.59946E+02  6528   0.938E+00    0.102E+02
DAV:  13    -0.363976733443E+04    0.26724E+02   -0.29244E+02  6272   0.120E+01    0.923E+01
DAV:  14    -0.359092856175E+04    0.48839E+02   -0.10310E+02  6272   0.117E+01    0.423E+01
DAV:  15    -0.361193089412E+04   -0.21002E+02   -0.16473E+02  6528   0.542E+00    0.721E+01
DAV:  16    -0.359751250636E+04    0.14418E+02   -0.13461E+02  6016   0.562E+00    0.333E+01
DAV:  17    -0.360027991686E+04   -0.27674E+01   -0.70140E+00  5888   0.188E+00    0.301E+01
DAV:  18    -0.360212905648E+04   -0.18491E+01   -0.84321E+00  6272   0.155E+00    0.260E+01
DAV:  19    -0.360132296371E+04    0.80609E+00   -0.95832E+00  6272   0.162E+00    0.236E+01
DAV:  20    -0.360260122242E+04   -0.12783E+01   -0.97191E+00  6016   0.124E+00    0.236E+01
DAV:  21    -0.360325224484E+04   -0.65102E+00   -0.32887E-01  6016   0.615E-01    0.220E+01
DAV:  22    -0.360489179850E+04   -0.16396E+01   -0.32204E-01  6400   0.825E-01    0.174E+01
DAV:  23    -0.360660512854E+04   -0.17133E+01   -0.49919E-01  6528   0.101E+00    0.124E+01
DAV:  24    -0.360774358697E+04   -0.11385E+01   -0.50826E-01  6400   0.985E-01    0.809E+00
DAV:  25    -0.360840141197E+04   -0.65783E+00   -0.46769E-01  6656   0.995E-01    0.483E+00
DAV:  26    -0.360859262495E+04   -0.19121E+00   -0.27667E-01  6144   0.649E-01    0.356E+00
DAV:  27    -0.360859832801E+04   -0.57031E-02   -0.91561E-02  6400   0.377E-01    0.312E+00
DAV:  28    -0.360858886462E+04    0.94634E-02   -0.68946E-02  6144   0.418E-01    0.222E+00
DAV:  29    -0.360854722937E+04    0.41635E-01   -0.64834E-02  6400   0.441E-01    0.154E+00
DAV:  30    -0.360849733353E+04    0.49896E-01   -0.64180E-02  6272   0.527E-01    0.924E-01
DAV:  31    -0.360846276730E+04    0.34566E-01   -0.80459E-02  6400   0.625E-01    0.460E-01
DAV:  32    -0.360845844271E+04    0.43246E-02   -0.67383E-02  6784   0.358E-01    0.614E-01
DAV:  33    -0.360846164245E+04   -0.31997E-02   -0.25712E-02  6528   0.205E-01    0.535E-01
DAV:  34    -0.360846225761E+04   -0.61516E-03   -0.82252E-03  6144   0.829E-02    0.396E-01
DAV:  35    -0.360846178972E+04    0.46790E-03   -0.10325E-03  6912   0.371E-02    0.349E-01
DAV:  36    -0.360846156121E+04    0.22850E-03   -0.61416E-03  6400   0.542E-02    0.303E-01
DAV:  37    -0.360846210859E+04   -0.54738E-03   -0.60026E-03  6528   0.493E-02    0.262E-01
DAV:  38    -0.360846241758E+04   -0.30899E-03   -0.44136E-03  6400   0.276E-02    0.257E-01
DAV:  39    -0.360846300032E+04   -0.58274E-03   -0.14641E-02  6144   0.369E-02    0.230E-01
DAV:  40    -0.360846398120E+04   -0.98087E-03   -0.67181E-03  6272   0.214E-02    0.225E-01
DAV:  41    -0.360846382957E+04    0.15163E-03   -0.15916E-03  5632   0.223E-02    0.230E-01
DAV:  42    -0.360846303364E+04    0.79593E-03   -0.43180E-03  6144   0.227E-02    0.245E-01
DAV:  43    -0.360846281878E+04    0.21486E-03   -0.22796E-03  6400   0.141E-02    0.250E-01
DAV:  44    -0.360846202006E+04    0.79872E-03   -0.10342E-02  6144   0.275E-02    0.247E-01
DAV:  45    -0.360846122115E+04    0.79891E-03   -0.12984E-02  6272   0.236E-02    0.236E-01
DAV:  46    -0.360846175359E+04   -0.53244E-03   -0.19612E-03  5888   0.330E-02    0.213E-01
DAV:  47    -0.360846124024E+04    0.51335E-03   -0.97231E-03  6656   0.468E-02    0.198E-01
DAV:  48    -0.360846142584E+04   -0.18560E-03   -0.93955E-03  6528   0.662E-02    0.164E-01
DAV:  49    -0.360846187236E+04   -0.44651E-03   -0.10736E-02  6400   0.457E-02    0.147E-01
DAV:  50    -0.360846242417E+04   -0.55181E-03   -0.18259E-03  6144   0.189E-02    0.141E-01
DAV:  51    -0.360846268890E+04   -0.26473E-03   -0.45856E-04  6528   0.284E-02    0.106E-01
DAV:  52    -0.360846250743E+04    0.18146E-03   -0.54713E-04  5888   0.170E-02    0.113E-01
DAV:  53    -0.360846247244E+04    0.34992E-04   -0.58990E-05  6272   0.345E-03    0.114E-01
DAV:  54    -0.360846232277E+04    0.14967E-03   -0.28040E-04  6144   0.464E-03    0.119E-01
DAV:  55    -0.360846202619E+04    0.29658E-03   -0.10222E-03  6272   0.780E-03    0.122E-01
DAV:  56    -0.360846150172E+04    0.52447E-03   -0.33511E-03  6272   0.296E-02    0.110E-01
DAV:  57    -0.360846159657E+04   -0.94852E-04   -0.39298E-04  6016   0.104E-02    0.101E-01
DAV:  58    -0.360846081125E+04    0.78532E-03   -0.56315E-03  6272   0.187E-02    0.101E-01
DAV:  59    -0.360846026611E+04    0.54514E-03   -0.55280E-03  6272   0.158E-02    0.986E-02
DAV:  60    -0.360845940534E+04    0.86078E-03   -0.10455E-02  6272   0.252E-02    0.989E-02
DAV:  61    -0.360845903604E+04    0.36930E-03   -0.90469E-03  6400   0.236E-02    0.819E-02
DAV:  62    -0.360845823223E+04    0.80381E-03   -0.14884E-02  6272   0.270E-02    0.792E-02
DAV:  63    -0.360845724526E+04    0.98697E-03   -0.23413E-02  6272   0.246E-02    0.831E-02
DAV:  64    -0.360845699547E+04    0.24979E-03   -0.21249E-02  6528   0.209E-02    0.793E-02
DAV:  65    -0.360845735920E+04   -0.36373E-03   -0.16304E-02  6144   0.234E-02    0.608E-02
DAV:  66    -0.360845843225E+04   -0.10731E-02   -0.25382E-03  5888   0.246E-02    0.572E-02
DAV:  67    -0.360845875664E+04   -0.32439E-03   -0.91887E-04  5760   0.161E-02    0.420E-02
DAV:  68    -0.360845880096E+04   -0.44320E-04   -0.11219E-03  6272   0.109E-02    0.352E-02
DAV:  69    -0.360845888665E+04   -0.85685E-04   -0.69888E-04  6144   0.728E-03    0.342E-02
DAV:  70    -0.360845894874E+04   -0.62098E-04   -0.94752E-04  6272   0.845E-03    0.356E-02
DAV:  71    -0.360845889982E+04    0.48921E-04   -0.38772E-04  5760   0.995E-03    0.348E-02
DAV:  72    -0.360845877068E+04    0.12914E-03   -0.68144E-04  6144   0.671E-03    0.358E-02
DAV:  73    -0.360845823130E+04    0.53938E-03   -0.61556E-03  6144   0.176E-02    0.418E-02
DAV:  74    -0.360845794921E+04    0.28208E-03   -0.53863E-03  6272   0.134E-02    0.507E-02
DAV:  75    -0.360845792597E+04    0.23242E-04   -0.54482E-03  6144   0.186E-02    0.547E-02
DAV:  76    -0.360845795851E+04   -0.32540E-04   -0.46616E-03  6272   0.163E-02    0.340E-02
DAV:  77    -0.360845809629E+04   -0.13779E-03   -0.35009E-03  6272   0.179E-02    0.295E-02
DAV:  78    -0.360845812536E+04   -0.29069E-04   -0.27172E-03  6144   0.103E-02    0.313E-02
DAV:  79    -0.360845830824E+04   -0.18287E-03   -0.37567E-04  5888   0.929E-03    0.185E-02
DAV:  80    -0.360845834074E+04   -0.32503E-04   -0.58943E-04  6144   0.115E-02    0.164E-02
DAV:  81    -0.360845835332E+04   -0.12583E-04   -0.10183E-04  6400   0.408E-03    0.113E-02
DAV:  82    -0.360845836039E+04   -0.70685E-05   -0.71660E-05  6272   0.350E-03    0.589E-03
DAV:  83    -0.360845836467E+04   -0.42816E-05   -0.58700E-06  5632   0.214E-03    0.288E-03
DAV:  84    -0.360845836358E+04    0.10941E-05   -0.31073E-05  6016   0.197E-03    0.416E-03
DAV:  85    -0.360845836168E+04    0.18973E-05   -0.77378E-05  6272   0.265E-03    0.297E-03
DAV:  86    -0.360845836468E+04   -0.29949E-05   -0.95410E-06  5632   0.112E-03    0.212E-03
DAV:  87    -0.360845836544E+04   -0.76625E-06   -0.10167E-05  5760   0.133E-03    0.241E-03
DAV:  88    -0.360845836463E+04    0.81325E-06   -0.22256E-05  5376   0.106E-03    0.240E-03
DAV:  89    -0.360845836578E+04   -0.11480E-05   -0.46217E-06  4992   0.749E-04    0.168E-03
DAV:  90    -0.360845836604E+04   -0.26551E-06   -0.97606E-06  5248   0.550E-04
 augmentation electrons   1811.87703979322     
 soft         electrons  0.000000000000000E+000
 total        electrons   1811.87703979322     
 augmentation electrons -6.871214663593632E-002
 soft         electrons  0.000000000000000E+000
 total        electrons -6.871214663593632E-002
 augmentation electrons   1923.93918884376     
 soft         electrons  0.000000000000000E+000
 total        electrons   1923.93918884376     
 augmentation electrons   1866.42202897176     
 soft         electrons  0.000000000000000E+000
 total        electrons   1866.42202897176     
 augmentation electrons   54.7785571980018     
 soft         electrons   1757.09839666087     
 total        electrons   1811.87695385887     
 augmentation electrons   31.7579427644999     
 soft         electrons   1757.09839666087     
 total        electrons   51.9312563148037     
 translations:           0           1           0
   1 F= -.36463621E+04 E0= -.36463621E+04  d E =-.364636E+04  mag=    52.0000
 curvature:   0.00 expect dE= 0.000E+00 dE for cont linesearch  0.000E+00
 trial: gam= 0.00000 g(F)=  0.199E+00 g(S)=  0.000E+00 ort = 0.000E+00 (trialstep = 0.100E+01)
 search vector abs. value=  0.199E+00
 bond charge predicted
       N       E                     dE             d eps       ncg     rms          rms(c)
DAV:   1    -0.360854549595E+04   -0.87130E-01   -0.13917E+01  5248   0.223E+00    0.186E+00
DAV:   2    -0.360859777211E+04   -0.52276E-01   -0.63746E-01  6144   0.510E-01    0.117E+00
DAV:   3    -0.360859598773E+04    0.17844E-02   -0.17619E-02  5888   0.109E-01    0.581E-01
DAV:   4    -0.360859503365E+04    0.95408E-03   -0.17385E-03  6656   0.287E-02    0.391E-01
DAV:   5    -0.360859426019E+04    0.77346E-03   -0.25675E-03  6784   0.375E-02    0.167E-01
DAV:   6    -0.360859429755E+04   -0.37363E-04   -0.75508E-04  5760   0.218E-02    0.400E-02
DAV:   7    -0.360859429390E+04    0.36516E-05   -0.53205E-05  6272   0.567E-03    0.269E-02
DAV:   8    -0.360859429038E+04    0.35189E-05   -0.66478E-06  5888   0.223E-03    0.161E-02
DAV:   9    -0.360859428757E+04    0.28090E-05   -0.11296E-05  6656   0.279E-03    0.618E-03
DAV:  10    -0.360859428745E+04    0.12747E-06   -0.41419E-06  6784   0.149E-03
 augmentation electrons   1811.87550034784     
 soft         electrons  0.000000000000000E+000
 total        electrons   1811.87550034784     
 augmentation electrons -6.885891931511183E-002
 soft         electrons  0.000000000000000E+000
 total        electrons -6.885891931511183E-002
 augmentation electrons   1907.24782453927     
 soft         electrons  0.000000000000000E+000
 total        electrons   1907.24782453927     
 augmentation electrons   1849.73066466727     
 soft         electrons  0.000000000000000E+000
 total        electrons   1849.73066466727     
 augmentation electrons   54.7910870351071     
 soft         electrons   1757.08433588115     
 total        electrons   1811.87542291625     
 augmentation electrons   31.7786265557775     
 soft         electrons   1757.08433588115     
 total        electrons   51.9311095437144     
 translations:           0           1           0
   2 F= -.36465037E+04 E0= -.36465037E+04  d E =-.141569E+00  mag=    52.0000
 trial-energy change:   -0.141569  1 .order   -0.143713   -0.198902   -0.088523
 step:   2.0544(harm=  1.8020)  dis= 0.04506  next Energy= -3646.547869 (dE=-0.186E+00)
 bond charge predicted
       N       E                     dE             d eps       ncg     rms          rms(c)
DAV:   1    -0.360857085458E+04    0.23433E-01   -0.15428E+01  5248   0.235E+00    0.192E+00
DAV:   2    -0.360862850011E+04   -0.57646E-01   -0.70039E-01  6144   0.533E-01    0.118E+00
DAV:   3    -0.360862656900E+04    0.19311E-02   -0.19253E-02  5760   0.114E-01    0.602E-01
DAV:   4    -0.360862556451E+04    0.10045E-02   -0.18167E-03  6784   0.294E-02    0.400E-01
DAV:   5    -0.360862470651E+04    0.85800E-03   -0.25951E-03  6656   0.383E-02    0.178E-01
DAV:   6    -0.360862474217E+04   -0.35667E-04   -0.84257E-04  5888   0.227E-02    0.406E-02
DAV:   7    -0.360862473996E+04    0.22075E-05   -0.68157E-05  6016   0.621E-03    0.273E-02
DAV:   8    -0.360862473675E+04    0.32134E-05   -0.81806E-06  6656   0.239E-03    0.162E-02
DAV:   9    -0.360862473432E+04    0.24322E-05   -0.16796E-05  6656   0.298E-03    0.653E-03
DAV:  10    -0.360862473451E+04   -0.19350E-06   -0.58754E-06  6912   0.158E-03
 augmentation electrons   1811.89055974668     
 soft         electrons  0.000000000000000E+000
 total        electrons   1811.89055974668     
 augmentation electrons -6.935900606626132E-002
 soft         electrons  0.000000000000000E+000
 total        electrons -6.935900606626132E-002
 augmentation electrons   1894.27029976430     
 soft         electrons  0.000000000000000E+000
 total        electrons   1894.27029976430     
 augmentation electrons   1836.75313989230     
 soft         electrons  0.000000000000000E+000
 total        electrons   1836.75313989230     
 augmentation electrons   54.8206980409702     
 soft         electrons   1757.06978832062     
 total        electrons   1811.89048636159     
 augmentation electrons   31.7976104109952     
 soft         electrons   1757.06978832062     
 total        electrons   51.9306095338072     
 translations:           0           1           0
   3 F= -.36465380E+04 E0= -.36465380E+04  d E =-.175846E+00  mag=    52.0000
 curvature:  -0.81 expect dE=-0.411E+00 dE for cont linesearch -0.836E-03
 trial: gam= 2.61745 g(F)=  0.506E+00 g(S)=  0.000E+00 ort =-0.143E-01 (trialstep = 0.134E+00)
 search vector abs. value=  0.179E+01
 bond charge predicted
       N       E                     dE             d eps       ncg     rms          rms(c)
DAV:   1    -0.360866617325E+04   -0.41439E-01   -0.23432E+00  5248   0.103E+00    0.729E-01
DAV:   2    -0.360867486895E+04   -0.86957E-02   -0.10653E-01  6144   0.219E-01    0.445E-01
DAV:   3    -0.360867453009E+04    0.33886E-03   -0.30589E-03  5632   0.478E-02    0.238E-01
DAV:   4    -0.360867435898E+04    0.17111E-03   -0.28053E-04  6784   0.122E-02    0.157E-01
DAV:   5    -0.360867419383E+04    0.16515E-03   -0.41323E-04  6656   0.170E-02    0.692E-02
DAV:   6    -0.360867419702E+04   -0.31919E-05   -0.15603E-04  5632   0.986E-03    0.153E-02
DAV:   7    -0.360867419729E+04   -0.27032E-06   -0.14669E-05  6144   0.278E-03    0.102E-02
DAV:   8    -0.360867419717E+04    0.11953E-06   -0.45910E-06  6272   0.110E-03
 augmentation electrons   1811.90138080325     
 soft         electrons  0.000000000000000E+000
 total        electrons   1811.90138080325     
 augmentation electrons -6.939721004084004E-002
 soft         electrons  0.000000000000000E+000
 total        electrons -6.939721004084004E-002
 augmentation electrons   1891.22400391719     
 soft         electrons  0.000000000000000E+000
 total        electrons   1891.22400391719     
 augmentation electrons   1833.70684404519     
 soft         electrons  0.000000000000000E+000
 total        electrons   1833.70684404519     
 augmentation electrons   54.8336576942352     
 soft         electrons   1757.06764872846     
 total        electrons   1811.90130642269     
 augmentation electrons   31.8038843504577     
 soft         electrons   1757.06764872846     
 total        electrons   51.9305714271348     
 translations:           0           1           0
   4 F= -.36465896E+04 E0= -.36465896E+04  d E =-.516346E-01  mag=    52.0000
 trial-energy change:   -0.051635  1 .order   -0.050313   -0.062939   -0.037687
 step:   0.2590(harm=  0.3346)  dis= 0.01740  next Energy= -3646.608199 (dE=-0.702E-01)
 bond charge predicted
       N       E                     dE             d eps       ncg     rms          rms(c)
DAV:   1    -0.360869087660E+04   -0.16679E-01   -0.20264E+00  5248   0.961E-01    0.677E-01
DAV:   2    -0.360869838043E+04   -0.75038E-02   -0.92027E-02  6144   0.204E-01    0.413E-01
DAV:   3    -0.360869808376E+04    0.29667E-03   -0.26536E-03  5632   0.448E-02    0.221E-01
DAV:   4    -0.360869793444E+04    0.14932E-03   -0.24429E-04  6784   0.114E-02    0.145E-01
DAV:   5    -0.360869778914E+04    0.14530E-03   -0.35839E-04  6528   0.159E-02    0.649E-02
DAV:   6    -0.360869779154E+04   -0.24033E-05   -0.14450E-04  5888   0.931E-03    0.145E-02
DAV:   7    -0.360869779227E+04   -0.73321E-06   -0.15317E-05  6016   0.271E-03    0.975E-03
DAV:   8    -0.360869779247E+04   -0.20138E-06   -0.58709E-06  6272   0.110E-03
 augmentation electrons   1811.90902068328     
 soft         electrons  0.000000000000000E+000
 total        electrons   1811.90902068328     
 augmentation electrons -6.951531778333020E-002
 soft         electrons  0.000000000000000E+000
 total        electrons -6.951531778333020E-002
 augmentation electrons   1889.18984860060     
 soft         electrons  0.000000000000000E+000
 total        electrons   1889.18984860060     
 augmentation electrons   1831.67268872860     
 soft         electrons  0.000000000000000E+000
 total        electrons   1831.67268872860     
 augmentation electrons   54.8433520282875     
 soft         electrons   1757.06559305822     
 total        electrons   1811.90894508651     
 augmentation electrons   31.8093710117173     
 soft         electrons   1757.06559305822     
 total        electrons   51.9304534224969     
 translations:           0           1           0
   5 F= -.36466150E+04 E0= -.36466150E+04  d E =-.770060E-01  mag=    52.0000
 curvature:  -0.55 expect dE=-0.527E-01 dE for cont linesearch -0.321E-02
 ZBRENT: increasing intervall
 opt :   0.5086  next Energy= -3646.596090 (dE=-0.581E-01)
 bond charge predicted
       N       E                     dE             d eps       ncg     rms          rms(c)
DAV:   1    -0.360865339358E+04    0.44399E-01   -0.80969E+00  5248   0.193E+00    0.132E+00
DAV:   2    -0.360868340914E+04   -0.30016E-01   -0.36760E-01  6016   0.408E-01    0.806E-01
DAV:   3    -0.360868225558E+04    0.11536E-02   -0.10478E-02  5760   0.892E-02    0.437E-01
DAV:   4    -0.360868166981E+04    0.58577E-03   -0.94905E-04  6656   0.227E-02    0.286E-01
DAV:   5    -0.360868109336E+04    0.57645E-03   -0.13592E-03  6400   0.318E-02    0.130E-01
DAV:   6    -0.360868110255E+04   -0.91920E-05   -0.55203E-04  5888   0.188E-02    0.286E-02
DAV:   7    -0.360868110343E+04   -0.87573E-06   -0.55548E-05  6144   0.553E-03    0.187E-02
DAV:   8    -0.360868110224E+04    0.11909E-05   -0.12188E-05  6528   0.216E-03    0.112E-02
DAV:   9    -0.360868110236E+04   -0.12413E-06   -0.37228E-05  6272   0.271E-03    0.632E-03
DAV:  10    -0.360868110429E+04   -0.19261E-05   -0.13214E-05  6016   0.149E-03    0.588E-03
DAV:  11    -0.360868110553E+04   -0.12423E-05   -0.48778E-06  5376   0.787E-04    0.540E-03
DAV:  12    -0.360868110762E+04   -0.20860E-05   -0.21802E-05  5248   0.119E-03    0.534E-03
DAV:  13    -0.360868110976E+04   -0.21472E-05   -0.14624E-05  5632   0.781E-04    0.548E-03
DAV:  14    -0.360868109886E+04    0.10899E-04   -0.12266E-04  6144   0.325E-03    0.585E-03
DAV:  15    -0.360868108938E+04    0.94832E-05   -0.11880E-04  5632   0.189E-03    0.574E-03
DAV:  16    -0.360868106405E+04    0.25335E-04   -0.42493E-04  6016   0.362E-03    0.702E-03
DAV:  17    -0.360868107979E+04   -0.15744E-04   -0.59722E-05  6272   0.241E-03    0.510E-03
DAV:  18    -0.360868108739E+04   -0.76014E-05   -0.10341E-05  5632   0.222E-03    0.437E-03
DAV:  19    -0.360868108617E+04    0.12204E-05   -0.41896E-05  5248   0.159E-03    0.443E-03
DAV:  20    -0.360868108927E+04   -0.30969E-05   -0.41074E-05  5888   0.209E-03    0.429E-03
DAV:  21    -0.360868109053E+04   -0.12630E-05   -0.40422E-06  5120   0.699E-04    0.427E-03
DAV:  22    -0.360868108995E+04    0.57941E-06   -0.50091E-06  5376   0.681E-04
 augmentation electrons   1811.90446798345     
 soft         electrons  0.000000000000000E+000
 total        electrons   1811.90446798345     
 augmentation electrons -6.976382073625734E-002
 soft         electrons  0.000000000000000E+000
 total        electrons -6.976382073625734E-002
 augmentation electrons   1889.05942489772     
 soft         electrons  0.000000000000000E+000
 total        electrons   1889.05942489772     
 augmentation electrons   1831.54226502572     
 soft         electrons  0.000000000000000E+000
 total        electrons   1831.54226502572     
 augmentation electrons   54.8429859272208     
 soft         electrons   1757.06140547833     
 total        electrons   1811.90439140555     
 augmentation electrons   31.8195695864599     
 soft         electrons   1757.06140547833     
 total        electrons   51.9302051584251     
 translations:           0           1           0
   6 F= -.36466012E+04 E0= -.36466012E+04  d E =-.631608E-01  mag=    52.0000
 curvature:   3.23 expect dE= 0.898E+00 dE for cont linesearch  0.103E+00
 ZBRENT: bracketing found
 ZBRENT: interpolating
 opt :   0.3340  next Energy= -3646.618836 (dE=-0.808E-01)
 bond charge predicted
       N       E                     dE             d eps       ncg     rms          rms(c)
DAV:   1    -0.360868831618E+04   -0.72256E-02   -0.39642E+00  5376   0.136E+00    0.961E-01
DAV:   2    -0.360870268626E+04   -0.14370E-01   -0.17676E-01  6016   0.294E-01    0.586E-01
DAV:   3    -0.360870215855E+04    0.52771E-03   -0.53635E-03  5760   0.644E-02    0.313E-01
DAV:   4    -0.360870188018E+04    0.27837E-03   -0.47396E-04  6656   0.161E-02    0.205E-01
DAV:   5    -0.360870161137E+04    0.26881E-03   -0.62785E-04  6528   0.219E-02    0.966E-02
DAV:   6    -0.360870161904E+04   -0.76708E-05   -0.29088E-04  5888   0.138E-02    0.200E-02
DAV:   7    -0.360870161971E+04   -0.66881E-06   -0.33282E-05  6016   0.426E-03    0.129E-02
DAV:   8    -0.360870161908E+04    0.62937E-06   -0.63473E-06  6400   0.159E-03
 augmentation electrons   1811.91127944501     
 soft         electrons  0.000000000000000E+000
 total        electrons   1811.91127944501     
 augmentation electrons -6.951327838560636E-002
 soft         electrons  0.000000000000000E+000
 total        electrons -6.951327838560636E-002
 augmentation electrons   1888.40941752529     
 soft         electrons  0.000000000000000E+000
 total        electrons   1888.40941752529     
 augmentation electrons   1830.89225765329     
 soft         electrons  0.000000000000000E+000
 total        electrons   1830.89225765329     
 augmentation electrons   54.8470143544275     
 soft         electrons   1757.06418886762     
 total        electrons   1811.91120322205     
 augmentation electrons   31.8125801069066     
 soft         electrons   1757.06418886762     
 total        electrons   51.9304555457376     
 translations:           0           1           0
   7 F= -.36466198E+04 E0= -.36466198E+04  d E =-.817784E-01  mag=    52.0000
 curvature:  -0.12 expect dE=-0.110E-01 dE for cont linesearch -0.269E-06
 trial: gam= 0.09567 g(F)=  0.913E-01 g(S)=  0.000E+00 ort = 0.200E-02 (trialstep = 0.174E+00)
 search vector abs. value=  0.108E+00
 bond charge predicted
       N       E                     dE             d eps       ncg     rms          rms(c)
DAV:   1    -0.360871487757E+04   -0.13258E-01   -0.30192E-01  5376   0.529E-01    0.177E-01
DAV:   2    -0.360871576959E+04   -0.89201E-03   -0.11623E-02  6144   0.880E-02    0.106E-01
DAV:   3    -0.360871569370E+04    0.75885E-04   -0.39837E-04  6016   0.194E-02    0.660E-02
DAV:   4    -0.360871566261E+04    0.31098E-04   -0.91498E-05  6528   0.874E-03    0.421E-02
DAV:   5    -0.360871565116E+04    0.11449E-04   -0.40174E-05  6528   0.557E-03    0.128E-02
DAV:   6    -0.360871565204E+04   -0.88748E-06   -0.23003E-05  6656   0.301E-03    0.557E-03
DAV:   7    -0.360871565308E+04   -0.10374E-05   -0.85974E-06  5504   0.114E-03    0.468E-03
DAV:   8    -0.360871565449E+04   -0.14054E-05   -0.14441E-05  5376   0.928E-04    0.449E-03
DAV:   9    -0.360871565585E+04   -0.13590E-05   -0.80953E-06  5248   0.629E-04    0.453E-03
DAV:  10    -0.360871565436E+04    0.14884E-05   -0.74206E-06  5248   0.108E-03    0.447E-03
DAV:  11    -0.360871565074E+04    0.36166E-05   -0.23798E-05  5376   0.114E-03    0.442E-03
DAV:  12    -0.360871563680E+04    0.13940E-04   -0.20239E-04  6144   0.296E-03    0.498E-03
DAV:  13    -0.360871562874E+04    0.80576E-05   -0.22260E-04  5632   0.229E-03    0.497E-03
DAV:  14    -0.360871564088E+04   -0.12134E-04   -0.19369E-05  5888   0.246E-03    0.361E-03
DAV:  15    -0.360871564179E+04   -0.91484E-06   -0.56042E-06  4992   0.796E-04
 augmentation electrons   1811.90768641631     
 soft         electrons  0.000000000000000E+000
 total        electrons   1811.90768641631     
 augmentation electrons -6.960686800296055E-002
 soft         electrons  0.000000000000000E+000
 total        electrons -6.960686800296055E-002
 augmentation electrons   1888.56958845403     
 soft         electrons  0.000000000000000E+000
 total        electrons   1888.56958845403     
 augmentation electrons   1831.05242858203     
 soft         electrons  0.000000000000000E+000
 total        electrons   1831.05242858203     
 augmentation electrons   54.8406855151889     
 soft         electrons   1757.06692492937     
 total        electrons   1811.90761044456     
 augmentation electrons   31.8127205125542     
 soft         electrons   1757.06692492937     
 total        electrons   51.9303620744337     
 translations:           0           1           0
   8 F= -.36466343E+04 E0= -.36466343E+04  d E =-.145717E-01  mag=    52.0000
 trial-energy change:   -0.014572  1 .order   -0.012326   -0.015932   -0.008720
 step:   0.2342(harm=  0.3848)  dis= 0.00243  next Energy= -3646.635933 (dE=-0.162E-01)
 bond charge predicted
       N       E                     dE             d eps       ncg     rms          rms(c)
DAV:   1    -0.360871869100E+04   -0.30501E-02   -0.35751E-02  5632   0.182E-01    0.606E-02
DAV:   2    -0.360871879602E+04   -0.10501E-03   -0.13835E-03  6144   0.302E-02    0.359E-02
DAV:   3    -0.360871878675E+04    0.92638E-05   -0.48810E-05  6016   0.661E-03    0.225E-02
DAV:   4    -0.360871878294E+04    0.38094E-05   -0.16021E-05  6784   0.320E-03    0.140E-02
DAV:   5    -0.360871878218E+04    0.76079E-06   -0.12990E-05  6400   0.189E-03    0.504E-03
DAV:   6    -0.360871878287E+04   -0.68620E-06   -0.90302E-06  5120   0.973E-04
 augmentation electrons   1811.90641703962     
 soft         electrons  0.000000000000000E+000
 total        electrons   1811.90641703962     
 augmentation electrons -6.960073355660785E-002
 soft         electrons  0.000000000000000E+000
 total        electrons -6.960073355660785E-002
 augmentation electrons   1888.63468241113     
 soft         electrons  0.000000000000000E+000
 total        electrons   1888.63468241113     
 augmentation electrons   1831.11752253913     
 soft         electrons  0.000000000000000E+000
 total        electrons   1831.11752253913     
 augmentation electrons   54.8385288703559     
 soft         electrons   1757.06781229426     
 total        electrons   1811.90634116461     
 augmentation electrons   31.8128014896420     
 soft         electrons   1757.06781229426     
 total        electrons   51.9303682532879     
 translations:           0           1           0
   9 F= -.36466377E+04 E0= -.36466377E+04  d E =-.178984E-01  mag=    52.0000
 curvature:  -0.11 expect dE=-0.334E-02 dE for cont linesearch -0.126E-02
 ZBRENT: increasing intervall
 opt :   0.3541  next Energy= -3646.640074 (dE=-0.203E-01)
 bond charge predicted
       N       E                     dE             d eps       ncg     rms          rms(c)
DAV:   1    -0.360872206506E+04   -0.32829E-02   -0.14325E-01  5376   0.365E-01    0.122E-01
DAV:   2    -0.360872248876E+04   -0.42370E-03   -0.55209E-03  6144   0.604E-02    0.721E-02
DAV:   3    -0.360872245196E+04    0.36796E-04   -0.18903E-04  6016   0.132E-02    0.449E-02
DAV:   4    -0.360872243684E+04    0.15125E-04   -0.48799E-05  6656   0.621E-03    0.281E-02
DAV:   5    -0.360872243248E+04    0.43606E-05   -0.23684E-05  6400   0.364E-03    0.870E-03
DAV:   6    -0.360872243322E+04   -0.74458E-06   -0.13595E-05  6144   0.183E-03    0.436E-03
DAV:   7    -0.360872243413E+04   -0.90906E-06   -0.66521E-06  5120   0.778E-04
 augmentation electrons   1811.90371834727     
 soft         electrons  0.000000000000000E+000
 total        electrons   1811.90371834727     
 augmentation electrons -6.967019870480695E-002
 soft         electrons  0.000000000000000E+000
 total        electrons -6.967019870480695E-002
 augmentation electrons   1888.78041640481     
 soft         electrons  0.000000000000000E+000
 total        electrons   1888.78041640481     
 augmentation electrons   1831.26325653281     
 soft         electrons  0.000000000000000E+000
 total        electrons   1831.26325653281     
 augmentation electrons   54.8340480018667     
 soft         electrons   1757.06959467878     
 total        electrons   1811.90364268064     
 augmentation electrons   31.8128817300236     
 soft         electrons   1757.06959467878     
 total        electrons   51.9302988729145     
 translations:           0           1           0
  10 F= -.36466417E+04 E0= -.36466417E+04  d E =-.219215E-01  mag=    52.0000
 curvature:  -0.21 expect dE=-0.817E-02 dE for cont linesearch -0.733E-04
 trial: gam= 0.36645 g(F)=  0.386E-01 g(S)=  0.000E+00 ort = 0.612E-02 (trialstep = 0.210E+00)
 search vector abs. value=  0.576E-01
 bond charge predicted
       N       E                     dE             d eps       ncg     rms          rms(c)
DAV:   1    -0.360873068589E+04   -0.82527E-02   -0.18928E-01  5632   0.391E-01    0.171E-01
DAV:   2    -0.360873164986E+04   -0.96397E-03   -0.10296E-02  5632   0.660E-02    0.843E-02
DAV:   3    -0.360873164361E+04    0.62458E-05   -0.27311E-04  5632   0.140E-02    0.511E-02
DAV:   4    -0.360873163457E+04    0.90371E-05   -0.29473E-05  7040   0.423E-03    0.375E-02
DAV:   5    -0.360873162557E+04    0.90059E-05   -0.43090E-05  6528   0.469E-03    0.157E-02
DAV:   6    -0.360873162743E+04   -0.18603E-05   -0.29599E-05  6656   0.268E-03    0.556E-03
DAV:   7    -0.360873162909E+04   -0.16676E-05   -0.92001E-06  5120   0.111E-03    0.477E-03
DAV:   8    -0.360873163081E+04   -0.17184E-05   -0.14513E-05  5504   0.747E-04    0.470E-03
DAV:   9    -0.360873163223E+04   -0.14137E-05   -0.60793E-06  5120   0.490E-04    0.471E-03
DAV:  10    -0.360873162751E+04    0.47163E-05   -0.34921E-05  5888   0.177E-03    0.469E-03
DAV:  11    -0.360873161925E+04    0.82592E-05   -0.74213E-05  5888   0.172E-03    0.478E-03
DAV:  12    -0.360873159111E+04    0.28142E-04   -0.42636E-04  6272   0.394E-03    0.634E-03
DAV:  13    -0.360873156791E+04    0.23201E-04   -0.59783E-04  6016   0.359E-03    0.730E-03
DAV:  14    -0.360873161017E+04   -0.42266E-04   -0.30104E-05  5632   0.453E-03    0.363E-03
DAV:  15    -0.360873161132E+04   -0.11422E-05   -0.18183E-06  4864   0.706E-04    0.341E-03
DAV:  16    -0.360873161163E+04   -0.31448E-06   -0.81800E-08  4352   0.334E-04
 augmentation electrons   1811.89901034354     
 soft         electrons  0.000000000000000E+000
 total        electrons   1811.89901034354     
 augmentation electrons -6.969957078055768E-002
 soft         electrons  0.000000000000000E+000
 total        electrons -6.969957078055768E-002
 augmentation electrons   1889.36778979914     
 soft         electrons  0.000000000000000E+000
 total        electrons   1889.36778979914     
 augmentation electrons   1831.85062992714     
 soft         electrons  0.000000000000000E+000
 total        electrons   1831.85062992714     
 augmentation electrons   54.8267380132569     
 soft         electrons   1757.07219706284     
 total        electrons   1811.89893507609     
 augmentation electrons   31.8125082200800     
 soft         electrons   1757.07219706284     
 total        electrons   51.9302696702288     
 translations:           0           1           0
  11 F= -.36466507E+04 E0= -.36466507E+04  d E =-.898211E-02  mag=    52.0000
 ZBRENT: can't locate minimum, use default step
 trial-energy change:   -0.008982  1 .order   -0.007628   -0.008590   -0.006665
 step:   0.8407(harm=  0.9381)  dis= 0.00686  next Energy= -3646.660860 (dE=-0.192E-01)
 bond charge predicted
       N       E                     dE             d eps       ncg     rms          rms(c)
DAV:   1    -0.360873852203E+04   -0.69107E-02   -0.17029E+00  5632   0.117E+00    0.512E-01
DAV:   2    -0.360874717001E+04   -0.86480E-02   -0.92553E-02  5632   0.198E-01    0.253E-01
DAV:   3    -0.360874715253E+04    0.17481E-04   -0.24244E-03  5632   0.417E-02    0.153E-01
DAV:   4    -0.360874706965E+04    0.82879E-04   -0.24327E-04  6912   0.126E-02    0.112E-01
DAV:   5    -0.360874698250E+04    0.87150E-04   -0.19520E-04  6528   0.134E-02    0.463E-02
DAV:   6    -0.360874698602E+04   -0.35162E-05   -0.96147E-05  6272   0.743E-03    0.104E-02
DAV:   7    -0.360874698662E+04   -0.60366E-06   -0.13846E-05  6400   0.271E-03    0.656E-03
DAV:   8    -0.360874698752E+04   -0.89419E-06   -0.12127E-05  5888   0.133E-03    0.467E-03
DAV:   9    -0.360874698872E+04   -0.12014E-05   -0.10513E-05  5504   0.880E-04    0.413E-03
DAV:  10    -0.360874699020E+04   -0.14763E-05   -0.14654E-05  5120   0.818E-04    0.403E-03
DAV:  11    -0.360874699175E+04   -0.15585E-05   -0.14663E-05  5120   0.698E-04    0.407E-03
DAV:  12    -0.360874699201E+04   -0.25272E-06   -0.35905E-07  4480   0.597E-04
 augmentation electrons   1811.88531185984     
 soft         electrons  0.000000000000000E+000
 total        electrons   1811.88531185984     
 augmentation electrons -6.989103992143661E-002
 soft         electrons  0.000000000000000E+000
 total        electrons -6.989103992143661E-002
 augmentation electrons   1891.53105400566     
 soft         electrons  0.000000000000000E+000
 total        electrons   1891.53105400566     
 augmentation electrons   1834.01389413366     
 soft         electrons  0.000000000000000E+000
 total        electrons   1834.01389413366     
 augmentation electrons   54.8052875041492     
 soft         electrons   1757.07995020315     
 total        electrons   1811.88523770730     
 augmentation electrons   31.8112724971824     
 soft         electrons   1757.07995020315     
 total        electrons   51.9300787227670     
 translations:           0           1           0
  12 F= -.36466655E+04 E0= -.36466655E+04  d E =-.237614E-01  mag=    52.0000
 curvature:  -0.65 expect dE=-0.482E-01 dE for cont linesearch -0.433E-04
 trial: gam= 1.95345 g(F)=  0.742E-01 g(S)=  0.000E+00 ort = 0.196E-02 (trialstep = 0.642E-01)
 search vector abs. value=  0.302E+00
 bond charge predicted
       N       E                     dE             d eps       ncg     rms          rms(c)
DAV:   1    -0.360875195174E+04   -0.49600E-02   -0.86865E-02  5632   0.231E-01    0.123E-01
DAV:   2    -0.360875247819E+04   -0.52646E-03   -0.53148E-03  5632   0.407E-02    0.591E-02
DAV:   3    -0.360875248327E+04   -0.50777E-05   -0.12921E-04  5632   0.869E-03    0.348E-02
DAV:   4    -0.360875248138E+04    0.18917E-05   -0.10808E-05  5888   0.200E-03    0.263E-02
DAV:   5    -0.360875247887E+04    0.25111E-05   -0.27040E-05  6016   0.285E-03    0.147E-02
DAV:   6    -0.360875248090E+04   -0.20263E-05   -0.33344E-05  5504   0.220E-03    0.584E-03
DAV:   7    -0.360875248285E+04   -0.19524E-05   -0.10352E-05  5376   0.106E-03    0.472E-03
DAV:   8    -0.360875248462E+04   -0.17685E-05   -0.13590E-05  5504   0.613E-04    0.464E-03
DAV:   9    -0.360875248630E+04   -0.16794E-05   -0.11235E-05  5120   0.487E-04    0.473E-03
DAV:  10    -0.360875247785E+04    0.84479E-05   -0.10430E-04  6144   0.272E-03    0.505E-03
DAV:  11    -0.360875247611E+04    0.17353E-05   -0.32128E-05  5376   0.831E-04    0.466E-03
DAV:  12    -0.360875245009E+04    0.26021E-04   -0.48822E-04  6144   0.424E-03    0.669E-03
DAV:  13    -0.360875246670E+04   -0.16611E-04   -0.17398E-05  5760   0.256E-03    0.459E-03
DAV:  14    -0.360875246976E+04   -0.30598E-05   -0.38022E-06  5504   0.143E-03    0.423E-03
DAV:  15    -0.360875247053E+04   -0.76689E-06   -0.13626E-05  5248   0.972E-04    0.444E-03
DAV:  16    -0.360875246275E+04    0.77808E-05   -0.48028E-04  6144   0.477E-03    0.688E-03
DAV:  17    -0.360875247612E+04   -0.13368E-04   -0.49428E-05  6272   0.191E-03    0.666E-03
DAV:  18    -0.360875248003E+04   -0.39144E-05   -0.10130E-05  5632   0.152E-03    0.674E-03
DAV:  19    -0.360875248028E+04   -0.24412E-06   -0.27905E-06  4864   0.399E-04
 augmentation electrons   1811.88178260915     
 soft         electrons  0.000000000000000E+000
 total        electrons   1811.88178260915     
 augmentation electrons -6.986741466143785E-002
 soft         electrons  0.000000000000000E+000
 total        electrons -6.986741466143785E-002
 augmentation electrons   1892.19120570247     
 soft         electrons  0.000000000000000E+000
 total        electrons   1892.19120570247     
 augmentation electrons   1834.67404583047     
 soft         electrons  0.000000000000000E+000
 total        electrons   1834.67404583047     
 augmentation electrons   54.8005707400376     
 soft         electrons   1757.08113819370     
 total        electrons   1811.88170893373     
 augmentation electrons   31.8109437625842     
 soft         electrons   1757.08113819370     
 total        electrons   51.9301024967417     
 translations:           0           1           0
  13 F= -.36466706E+04 E0= -.36466706E+04  d E =-.511679E-02  mag=    52.0000
 ZBRENT: can't locate minimum, use default step
 trial-energy change:   -0.005117  1 .order   -0.004924   -0.005010   -0.004838
 step:   0.2569(harm=  1.8681)  dis= 0.00520  next Energy= -3646.738314 (dE=-0.729E-01)
 bond charge predicted
       N       E                     dE             d eps       ncg     rms          rms(c)
DAV:   1    -0.360876241799E+04   -0.99380E-02   -0.78321E-01  5632   0.695E-01    0.371E-01
DAV:   2    -0.360876713297E+04   -0.47150E-02   -0.47799E-02  5632   0.122E-01    0.176E-01
DAV:   3    -0.360876719176E+04   -0.58794E-04   -0.11410E-03  5376   0.260E-02    0.103E-01
DAV:   4    -0.360876716938E+04    0.22389E-04   -0.86967E-05  6528   0.602E-03    0.777E-02
DAV:   5    -0.360876713044E+04    0.38939E-04   -0.90471E-05  6656   0.781E-03    0.431E-02
DAV:   6    -0.360876713057E+04   -0.13632E-06   -0.79755E-05  6272   0.589E-03    0.117E-02
DAV:   7    -0.360876713313E+04   -0.25589E-05   -0.18371E-05  6656   0.254E-03    0.600E-03
DAV:   8    -0.360876713499E+04   -0.18579E-05   -0.16394E-05  5248   0.103E-03    0.507E-03
DAV:   9    -0.360876713717E+04   -0.21819E-05   -0.21832E-05  5504   0.906E-04    0.501E-03
DAV:  10    -0.360876713879E+04   -0.16179E-05   -0.58127E-06  4992   0.598E-04    0.495E-03
DAV:  11    -0.360876713650E+04    0.22895E-05   -0.11124E-05  5632   0.112E-03    0.487E-03
DAV:  12    -0.360876712601E+04    0.10494E-04   -0.98278E-05  6144   0.222E-03    0.530E-03
DAV:  13    -0.360876712757E+04   -0.15657E-05   -0.16748E-05  5248   0.967E-04    0.483E-03
DAV:  14    -0.360876711119E+04    0.16377E-04   -0.26441E-04  6144   0.280E-03    0.624E-03
DAV:  15    -0.360876711043E+04    0.76204E-06   -0.12395E-04  5632   0.159E-03    0.554E-03
DAV:  16    -0.360876711504E+04   -0.46069E-05   -0.31181E-05  5888   0.150E-03    0.487E-03
DAV:  17    -0.360876711752E+04   -0.24818E-05   -0.29962E-06  4992   0.105E-03    0.448E-03
DAV:  18    -0.360876711854E+04   -0.10161E-05   -0.63644E-06  5120   0.677E-04    0.435E-03
DAV:  19    -0.360876712010E+04   -0.15664E-05   -0.37592E-05  5504   0.112E-03    0.434E-03
DAV:  20    -0.360876712272E+04   -0.26128E-05   -0.88913E-05  5632   0.149E-03    0.426E-03
DAV:  21    -0.360876712505E+04   -0.23324E-05   -0.39959E-04  6144   0.295E-03    0.558E-03
DAV:  22    -0.360876712395E+04    0.10947E-05   -0.82553E-04  6144   0.380E-03    0.659E-03
DAV:  23    -0.360876713356E+04   -0.96015E-05   -0.48985E-04  5760   0.248E-03    0.591E-03
DAV:  24    -0.360876714622E+04   -0.12662E-04   -0.37468E-05  6016   0.222E-03    0.453E-03
DAV:  25    -0.360876714786E+04   -0.16399E-05   -0.11414E-05  5632   0.144E-03    0.462E-03
DAV:  26    -0.360876714649E+04    0.13675E-05   -0.29140E-05  5376   0.905E-04    0.506E-03
DAV:  27    -0.360876714553E+04    0.95718E-06   -0.49657E-04  5888   0.431E-03    0.459E-03
DAV:  28    -0.360876714498E+04    0.54840E-06   -0.57968E-04  5888   0.306E-03    0.538E-03
DAV:  29    -0.360876715704E+04   -0.12059E-04   -0.81590E-06  5504   0.257E-03    0.315E-03
DAV:  30    -0.360876715748E+04   -0.43304E-06   -0.46959E-06  5376   0.836E-04
 augmentation electrons   1811.87110862776     
 soft         electrons  0.000000000000000E+000
 total        electrons   1811.87110862776     
 augmentation electrons -6.985803870718471E-002
 soft         electrons  0.000000000000000E+000
 total        electrons -6.985803870718471E-002
 augmentation electrons   1894.47978699812     
 soft         electrons  0.000000000000000E+000
 total        electrons   1894.47978699812     
 augmentation electrons   1836.96262712612     
 soft         electrons  0.000000000000000E+000
 total        electrons   1836.96262712612     
 augmentation electrons   54.7863065923748     
 soft         electrons   1757.08472973996     
 total        electrons   1811.87103633234     
 augmentation electrons   31.8098428440746     
 soft         electrons   1757.08472973996     
 total        electrons   51.9301123668533     
 translations:           0           1           0
  14 F= -.36466841E+04 E0= -.36466841E+04  d E =-.186789E-01  mag=    52.0000
 curvature:  -0.73 expect dE=-0.340E-01 dE for cont linesearch -0.882E-02
 ZBRENT: increasing intervall
 opt :   0.6422  next Energy= -3646.701627 (dE=-0.362E-01)
 bond charge predicted
       N       E                     dE             d eps       ncg     rms          rms(c)
DAV:   1    -0.360877058139E+04   -0.34243E-02   -0.31305E+00  5632   0.139E+00    0.743E-01
DAV:   2    -0.360878933688E+04   -0.18755E-01   -0.19112E-01  5632   0.243E-01    0.352E-01
DAV:   3    -0.360878968299E+04   -0.34611E-03   -0.44855E-03  5376   0.504E-02    0.207E-01
DAV:   4    -0.360878959338E+04    0.89605E-04   -0.33906E-04  6528   0.118E-02    0.156E-01
DAV:   5    -0.360878943207E+04    0.16131E-03   -0.29315E-04  6656   0.153E-02    0.862E-02
DAV:   6    -0.360878942422E+04    0.78504E-05   -0.20979E-04  5888   0.113E-02    0.216E-02
DAV:   7    -0.360878942725E+04   -0.30300E-05   -0.36424E-05  6528   0.473E-03    0.862E-03
DAV:   8    -0.360878942801E+04   -0.75958E-06   -0.13055E-05  5760   0.167E-03    0.530E-03
DAV:   9    -0.360878942938E+04   -0.13755E-05   -0.16620E-05  6144   0.129E-03    0.452E-03
DAV:  10    -0.360878943083E+04   -0.14484E-05   -0.10927E-05  5248   0.874E-04    0.440E-03
DAV:  11    -0.360878943190E+04   -0.10650E-05   -0.50136E-06  5120   0.551E-04    0.439E-03
DAV:  12    -0.360878943125E+04    0.64813E-06   -0.19219E-06  4608   0.618E-04
 augmentation electrons   1811.84683682305     
 soft         electrons  0.000000000000000E+000
 total        electrons   1811.84683682305     
 augmentation electrons -6.933090554958074E-002
 soft         electrons  0.000000000000000E+000
 total        electrons -6.933090554958074E-002
 augmentation electrons   1900.71402893684     
 soft         electrons  0.000000000000000E+000
 total        electrons   1900.71402893684     
 augmentation electrons   1843.19686906484     
 soft         electrons  0.000000000000000E+000
 total        electrons   1843.19686906484     
 augmentation electrons   54.7548227509911     
 soft         electrons   1757.09194462470     
 total        electrons   1811.84676737570     
 augmentation electrons   31.8083605372600     
 soft         electrons   1757.09194462470     
 total        electrons   51.9306403351346     
 translations:           0           1           0
  15 F= -.36467041E+04 E0= -.36467041E+04  d E =-.386981E-01  mag=    52.0000
 curvature:  -1.45 expect dE=-0.653E-01 dE for cont linesearch -0.600E-02
 ZBRENT: increasing intervall
 opt :   1.4129  next Energy= -3646.712104 (dE=-0.467E-01)
 bond charge predicted
       N       E                     dE             d eps       ncg     rms          rms(c)
DAV:   1    -0.360872894199E+04    0.60490E-01   -0.12508E+01  5504   0.278E+00    0.151E+00
DAV:   2    -0.360880460980E+04   -0.75668E-01   -0.77418E-01  5632   0.488E-01    0.716E-01
DAV:   3    -0.360880627033E+04   -0.16605E-02   -0.17556E-02  5632   0.981E-02    0.420E-01
DAV:   4    -0.360880590087E+04    0.36946E-03   -0.13585E-03  6656   0.236E-02    0.319E-01
DAV:   5    -0.360880523804E+04    0.66283E-03   -0.11909E-03  6656   0.306E-02    0.178E-01
DAV:   6    -0.360880520309E+04    0.34953E-04   -0.87483E-04  5888   0.229E-02    0.452E-02
DAV:   7    -0.360880521592E+04   -0.12833E-04   -0.15029E-04  6400   0.957E-03    0.178E-02
DAV:   8    -0.360880521921E+04   -0.32887E-05   -0.56850E-05  6656   0.347E-03    0.107E-02
DAV:   9    -0.360880522503E+04   -0.58225E-05   -0.69650E-05  6400   0.258E-03    0.923E-03
DAV:  10    -0.360880523134E+04   -0.63029E-05   -0.44316E-05  5248   0.172E-03    0.905E-03
DAV:  11    -0.360880523480E+04   -0.34596E-05   -0.98876E-06  5120   0.101E-03    0.898E-03
DAV:  12    -0.360880523051E+04    0.42863E-05   -0.13782E-05  5888   0.133E-03    0.886E-03
DAV:  13    -0.360880521284E+04    0.17670E-04   -0.14052E-04  6272   0.276E-03    0.910E-03
DAV:  14    -0.360880520959E+04    0.32453E-05   -0.51390E-05  5504   0.122E-03    0.859E-03
DAV:  15    -0.360880514327E+04    0.66320E-04   -0.12967E-03  6144   0.717E-03    0.113E-02
DAV:  16    -0.360880516473E+04   -0.21452E-04   -0.22299E-04  6400   0.352E-03    0.845E-03
DAV:  17    -0.360880518286E+04   -0.18137E-04   -0.28264E-05  5632   0.323E-03    0.757E-03
DAV:  18    -0.360880518360E+04   -0.74011E-06   -0.22468E-05  5376   0.121E-03    0.735E-03
DAV:  19    -0.360880518886E+04   -0.52565E-05   -0.89043E-05  6144   0.236E-03    0.725E-03
DAV:  20    -0.360880519491E+04   -0.60486E-05   -0.21086E-04  6016   0.246E-03    0.768E-03
DAV:  21    -0.360880520362E+04   -0.87145E-05   -0.12706E-04  5248   0.160E-03    0.747E-03
DAV:  22    -0.360880521016E+04   -0.65385E-05   -0.46431E-05  5632   0.114E-03    0.740E-03
DAV:  23    -0.360880519225E+04    0.17913E-04   -0.43098E-04  6144   0.478E-03    0.863E-03
DAV:  24    -0.360880519811E+04   -0.58634E-05   -0.38158E-06  5632   0.198E-03    0.760E-03
DAV:  25    -0.360880519087E+04    0.72393E-05   -0.97794E-05  5888   0.163E-03    0.897E-03
DAV:  26    -0.360880519201E+04   -0.11367E-05   -0.17439E-05  5888   0.218E-03    0.100E-02
DAV:  27    -0.360880518758E+04    0.44256E-05   -0.41793E-05  6272   0.218E-03    0.167E-02
DAV:  28    -0.360880518413E+04    0.34569E-05   -0.67372E-06  5632   0.130E-03    0.201E-02
DAV:  29    -0.360880518457E+04   -0.44073E-06   -0.39307E-06  4992   0.560E-04
 augmentation electrons   1811.76109039150     
 soft         electrons  0.000000000000000E+000
 total        electrons   1811.76109039150     
 augmentation electrons -6.788728046079767E-002
 soft         electrons  0.000000000000000E+000
 total        electrons -6.788728046079767E-002
 augmentation electrons   1924.45860865976     
 soft         electrons  0.000000000000000E+000
 total        electrons   1924.45860865976     
 augmentation electrons   1866.94144878776     
 soft         electrons  0.000000000000000E+000
 total        electrons   1866.94144878776     
 augmentation electrons   54.6546542817737     
 soft         electrons   1757.10637258174     
 total        electrons   1811.76102686352     
 augmentation electrons   31.8057698008812     
 soft         electrons   1757.10637258174     
 total        electrons   51.9320855348503     
 translations:           0           1           0
  16 F= -.36467153E+04 E0= -.36467153E+04  d E =-.498718E-01  mag=    52.0000
 curvature:  -1.92 expect dE=-0.358E+00 dE for cont linesearch -0.685E-03
 trial: gam= 2.94278 g(F)=  0.186E+00 g(S)=  0.000E+00 ort =-0.104E-01 (trialstep = 0.368E-01)
 search vector abs. value=  0.274E+01
 bond charge predicted
       N       E                     dE             d eps       ncg     rms          rms(c)
DAV:   1    -0.360880986095E+04   -0.46768E-02   -0.25899E-01  5888   0.376E-01    0.211E-01
DAV:   2    -0.360881140610E+04   -0.15452E-02   -0.15642E-02  5632   0.684E-02    0.101E-01
DAV:   3    -0.360881142553E+04   -0.19427E-04   -0.36331E-04  5632   0.145E-02    0.590E-02
DAV:   4    -0.360881141973E+04    0.58056E-05   -0.30381E-05  6528   0.342E-03    0.453E-02
DAV:   5    -0.360881141118E+04    0.85502E-05   -0.70104E-05  6400   0.478E-03    0.255E-02
DAV:   6    -0.360881141601E+04   -0.48313E-05   -0.85056E-05  6400   0.379E-03    0.936E-03
DAV:   7    -0.360881142057E+04   -0.45590E-05   -0.25655E-05  5888   0.179E-03    0.715E-03
DAV:   8    -0.360881142466E+04   -0.40939E-05   -0.32823E-05  5632   0.937E-04    0.693E-03
DAV:   9    -0.360881142931E+04   -0.46551E-05   -0.48143E-05  5248   0.104E-03    0.706E-03
DAV:  10    -0.360881142677E+04    0.25404E-05   -0.16099E-05  5888   0.170E-03    0.696E-03
DAV:  11    -0.360881142942E+04   -0.26453E-05   -0.78627E-06  5120   0.888E-04    0.691E-03
DAV:  12    -0.360881143420E+04   -0.47768E-05   -0.34511E-04  6144   0.404E-03    0.835E-03
DAV:  13    -0.360881140375E+04    0.30450E-04   -0.74901E-04  6144   0.802E-03    0.896E-03
DAV:  14    -0.360881142713E+04   -0.23382E-04   -0.40239E-05  5760   0.388E-03    0.755E-03
DAV:  15    -0.360881142581E+04    0.13150E-05   -0.95018E-06  5120   0.766E-04    0.798E-03
DAV:  16    -0.360881141992E+04    0.58978E-05   -0.13776E-04  6272   0.346E-03    0.763E-03
DAV:  17    -0.360881141877E+04    0.11502E-05   -0.19873E-04  6272   0.274E-03    0.759E-03
DAV:  18    -0.360881143083E+04   -0.12065E-04   -0.40770E-04  6144   0.393E-03    0.737E-03
DAV:  19    -0.360881143726E+04   -0.64256E-05   -0.70915E-04  6016   0.362E-03    0.814E-03
DAV:  20    -0.360881142151E+04    0.15749E-04   -0.25329E-03  6144   0.815E-03    0.117E-02
DAV:  21    -0.360881147526E+04   -0.53752E-04   -0.66877E-05  5888   0.504E-03    0.792E-03
DAV:  22    -0.360881147250E+04    0.27611E-05   -0.30744E-04  6144   0.468E-03    0.855E-03
DAV:  23    -0.360881146836E+04    0.41364E-05   -0.71615E-05  5632   0.128E-03    0.829E-03
DAV:  24    -0.360881146677E+04    0.15931E-05   -0.19678E-05  5376   0.907E-04    0.818E-03
DAV:  25    -0.360881146581E+04    0.96223E-06   -0.61396E-06  5504   0.907E-04
 augmentation electrons   1811.74358920622     
 soft         electrons  0.000000000000000E+000
 total        electrons   1811.74358920622     
 augmentation electrons -6.784987272814863E-002
 soft         electrons  0.000000000000000E+000
 total        electrons -6.784987272814863E-002
 augmentation electrons   1930.11392389612     
 soft         electrons  0.000000000000000E+000
 total        electrons   1930.11392389612     
 augmentation electrons   1872.59676402412     
 soft         electrons  0.000000000000000E+000
 total        electrons   1872.59676402412     
 augmentation electrons   54.6360888160265     
 soft         electrons   1757.10743777778     
 total        electrons   1811.74352659380     
 augmentation electrons   31.8051602214874     
 soft         electrons   1757.10743777778     
 total        electrons   51.9321232352244     
 translations:           0           1           0
  17 F= -.36467207E+04 E0= -.36467207E+04  d E =-.536303E-02  mag=    52.0000
 ZBRENT: can't locate minimum, use default step
 trial-energy change:   -0.005363  1 .order   -0.005409   -0.005732   -0.005087
 step:   0.1472(harm=  0.3272)  dis= 0.00929  next Energy= -3646.740801 (dE=-0.255E-01)
 bond charge predicted
       N       E                     dE             d eps       ncg     rms          rms(c)
DAV:   1    -0.360881324903E+04   -0.17823E-02   -0.23312E+00  5376   0.113E+00    0.638E-01
DAV:   2    -0.360882722370E+04   -0.13975E-01   -0.14228E-01  5632   0.205E-01    0.302E-01
DAV:   3    -0.360882744713E+04   -0.22343E-03   -0.31333E-03  5632   0.420E-02    0.177E-01
DAV:   4    -0.360882738164E+04    0.65491E-04   -0.24586E-04  6528   0.102E-02    0.135E-01
DAV:   5    -0.360882726186E+04    0.11978E-03   -0.26107E-04  6528   0.133E-02    0.764E-02
DAV:   6    -0.360882725997E+04    0.18819E-05   -0.22054E-04  6272   0.102E-02    0.210E-02
DAV:   7    -0.360882726635E+04   -0.63723E-05   -0.49879E-05  6528   0.443E-03    0.970E-03
DAV:   8    -0.360882727057E+04   -0.42247E-05   -0.39987E-05  5632   0.176E-03    0.785E-03
DAV:   9    -0.360882727558E+04   -0.50105E-05   -0.52267E-05  5760   0.152E-03    0.768E-03
DAV:  10    -0.360882727983E+04   -0.42518E-05   -0.19617E-05  5120   0.995E-04    0.763E-03
DAV:  11    -0.360882727407E+04    0.57643E-05   -0.32267E-05  6272   0.193E-03    0.752E-03
DAV:  12    -0.360882725682E+04    0.17246E-04   -0.15029E-04  6272   0.265E-03    0.787E-03
DAV:  13    -0.360882725648E+04    0.33854E-06   -0.40941E-05  5760   0.121E-03    0.737E-03
DAV:  14    -0.360882720891E+04    0.47578E-04   -0.79664E-04  6272   0.522E-03    0.973E-03
DAV:  15    -0.360882722059E+04   -0.11680E-04   -0.18219E-04  6400   0.271E-03    0.784E-03
DAV:  16    -0.360882723327E+04   -0.12684E-04   -0.30875E-05  5888   0.253E-03    0.716E-03
DAV:  17    -0.360882723546E+04   -0.21899E-05   -0.14410E-05  5248   0.120E-03    0.682E-03
DAV:  18    -0.360882724058E+04   -0.51244E-05   -0.99009E-05  6144   0.229E-03    0.667E-03
DAV:  19    -0.360882724633E+04   -0.57412E-05   -0.18044E-04  5888   0.226E-03    0.692E-03
DAV:  20    -0.360882725168E+04   -0.53514E-05   -0.35012E-05  6016   0.130E-03    0.660E-03
DAV:  21    -0.360882725263E+04   -0.95165E-06   -0.85208E-07  5376   0.842E-04
 augmentation electrons   1811.68824457631     
 soft         electrons  0.000000000000000E+000
 total        electrons   1811.68824457631     
 augmentation electrons -6.752772830151284E-002
 soft         electrons  0.000000000000000E+000
 total        electrons -6.752772830151284E-002
 augmentation electrons   1955.03084125239     
 soft         electrons  0.000000000000000E+000
 total        electrons   1955.03084125239     
 augmentation electrons   1897.51368138039     
 soft         electrons  0.000000000000000E+000
 total        electrons   1897.51368138039     
 augmentation electrons   54.5775649874941     
 soft         electrons   1757.11061924980     
 total        electrons   1811.68818423729     
 augmentation electrons   31.8037888497091     
 soft         electrons   1757.11061924980     
 total        electrons   51.9324460023603     
 translations:           0           1           0
  18 F= -.36467337E+04 E0= -.36467337E+04  d E =-.183630E-01  mag=    52.0000
 curvature:  -1.77 expect dE=-0.211E+00 dE for cont linesearch -0.544E-02
 ZBRENT: increasing intervall
 opt :   0.3680  next Energy= -3646.743679 (dE=-0.284E-01)
 bond charge predicted
       N       E                     dE             d eps       ncg     rms          rms(c)
DAV:   1    -0.360878780918E+04    0.39442E-01   -0.93214E+00  5376   0.225E+00    0.128E+00
DAV:   2    -0.360884340249E+04   -0.55593E-01   -0.56798E-01  5632   0.409E-01    0.605E-01
DAV:   3    -0.360884451857E+04   -0.11161E-02   -0.12223E-02  5632   0.813E-02    0.355E-01
DAV:   4    -0.360884425617E+04    0.26241E-03   -0.98155E-04  6656   0.202E-02    0.273E-01
DAV:   5    -0.360884376657E+04    0.48959E-03   -0.90207E-04  6656   0.259E-02    0.155E-01
DAV:   6    -0.360884374258E+04    0.23994E-04   -0.71398E-04  6144   0.202E-02    0.411E-02
DAV:   7    -0.360884375591E+04   -0.13337E-04   -0.13462E-04  6528   0.857E-03    0.164E-02
DAV:   8    -0.360884376101E+04   -0.51005E-05   -0.65464E-05  6400   0.313E-03    0.106E-02
DAV:   9    -0.360884376818E+04   -0.71675E-05   -0.87529E-05  6016   0.254E-03    0.950E-03
DAV:  10    -0.360884377548E+04   -0.73018E-05   -0.51939E-05  5248   0.171E-03    0.925E-03
DAV:  11    -0.360884378160E+04   -0.61149E-05   -0.37384E-05  5248   0.120E-03    0.916E-03
DAV:  12    -0.360884378882E+04   -0.72225E-05   -0.64061E-05  5376   0.132E-03    0.921E-03
DAV:  13    -0.360884379328E+04   -0.44553E-05   -0.14771E-05  5376   0.882E-04    0.918E-03
DAV:  14    -0.360884374296E+04    0.50318E-04   -0.84550E-04  6144   0.653E-03    0.111E-02
DAV:  15    -0.360884371315E+04    0.29803E-04   -0.63649E-04  6016   0.337E-03    0.111E-02
DAV:  16    -0.360884372014E+04   -0.69848E-05   -0.19145E-04  6272   0.281E-03    0.994E-03
DAV:  17    -0.360884372585E+04   -0.57104E-05   -0.44980E-05  6144   0.199E-03    0.910E-03
DAV:  18    -0.360884373009E+04   -0.42408E-05   -0.20109E-05  5888   0.147E-03    0.873E-03
DAV:  19    -0.360884373426E+04   -0.41709E-05   -0.27374E-05  5376   0.120E-03    0.851E-03
DAV:  20    -0.360884374310E+04   -0.88351E-05   -0.25861E-04  6144   0.285E-03    0.850E-03
DAV:  21    -0.360884374616E+04   -0.30656E-05   -0.33048E-03  6144   0.977E-03    0.122E-02
DAV:  22    -0.360884378703E+04   -0.40870E-04   -0.97431E-04  6016   0.453E-03    0.105E-02
DAV:  23    -0.360884381070E+04   -0.23668E-04   -0.82570E-04  6016   0.355E-03    0.929E-03
DAV:  24    -0.360884383564E+04   -0.24945E-04   -0.15913E-04  5888   0.302E-03    0.831E-03
DAV:  25    -0.360884384586E+04   -0.10213E-04   -0.41566E-04  5760   0.244E-03    0.803E-03
DAV:  26    -0.360884385496E+04   -0.91065E-05   -0.81788E-04  6144   0.398E-03    0.913E-03
DAV:  27    -0.360884387371E+04   -0.18750E-04   -0.16543E-05  5760   0.327E-03    0.762E-03
DAV:  28    -0.360884386848E+04    0.52294E-05   -0.82913E-05  6144   0.253E-03    0.820E-03
DAV:  29    -0.360884385880E+04    0.96845E-05   -0.97807E-05  6144   0.202E-03    0.890E-03
DAV:  30    -0.360884385569E+04    0.31056E-05   -0.33574E-04  6144   0.396E-03    0.943E-03
DAV:  31    -0.360884386324E+04   -0.75429E-05   -0.17682E-04  6144   0.240E-03    0.907E-03
DAV:  32    -0.360884382297E+04    0.40269E-04   -0.44946E-03  6144   0.113E-02    0.134E-02
DAV:  33    -0.360884385576E+04   -0.32796E-04   -0.17173E-03  6016   0.582E-03    0.123E-02
DAV:  34    -0.360884388313E+04   -0.27361E-04   -0.88263E-04  6144   0.423E-03    0.103E-02
DAV:  35    -0.360884390793E+04   -0.24800E-04   -0.29734E-04  6016   0.315E-03    0.775E-03
DAV:  36    -0.360884388403E+04    0.23900E-04   -0.28494E-03  6144   0.767E-03    0.109E-02
DAV:  37    -0.360884393026E+04   -0.46237E-04   -0.72925E-05  5888   0.526E-03    0.446E-03
DAV:  38    -0.360884392727E+04    0.29953E-05   -0.43524E-04  6144   0.260E-03    0.455E-03
DAV:  39    -0.360884393776E+04   -0.10494E-04   -0.23035E-05  5760   0.285E-03    0.246E-03
DAV:  40    -0.360884393716E+04    0.60009E-06   -0.70394E-05  6016   0.150E-03    0.183E-03
DAV:  41    -0.360884393685E+04    0.30715E-06   -0.91038E-05  5248   0.116E-03    0.227E-03
DAV:  42    -0.360884393852E+04   -0.16697E-05   -0.21326E-05  5504   0.876E-04    0.127E-03
DAV:  43    -0.360884393885E+04   -0.32187E-06   -0.17779E-05  5120   0.562E-04    0.106E-03
DAV:  44    -0.360884393924E+04   -0.39650E-06   -0.35496E-06  5120   0.819E-04
 augmentation electrons   1811.64656291367     
 soft         electrons  0.000000000000000E+000
 total        electrons   1811.64656291367     
 augmentation electrons -6.698051678639118E-002
 soft         electrons  0.000000000000000E+000
 total        electrons -6.698051678639118E-002
 augmentation electrons   2060.52213928510     
 soft         electrons  0.000000000000000E+000
 total        electrons   2060.52213928510     
 augmentation electrons   2003.00497941310     
 soft         electrons  0.000000000000000E+000
 total        electrons   2003.00497941310     
 augmentation electrons   54.5295316400979     
 soft         electrons   1757.11697134419     
 total        electrons   1811.64650298428     
 augmentation electrons   31.8005346608807     
 soft         electrons   1757.11697134419     
 total        electrons   51.9329946472179     
 translations:           0           1           0
  19 F= -.36467447E+04 E0= -.36467447E+04  d E =-.294168E-01  mag=    52.0000
 curvature:  -3.25 expect dE=-0.312E+00 dE for cont linesearch -0.205E-03
 trial: gam= 0.09892 g(F)=  0.958E-01 g(S)=  0.000E+00 ort = 0.131E-01 (trialstep = 0.103E+00)
 search vector abs. value=  0.125E+00
 bond charge predicted
       N       E                     dE             d eps       ncg     rms          rms(c)
DAV:   1    -0.360885310780E+04   -0.91689E-02   -0.10479E-01  5376   0.310E-01    0.904E-02
DAV:   2    -0.360885335395E+04   -0.24615E-03   -0.29848E-03  6400   0.444E-02    0.502E-02
DAV:   3    -0.360885334086E+04    0.13084E-04   -0.87650E-05  6272   0.931E-03    0.327E-02
DAV:   4    -0.360885333524E+04    0.56239E-05   -0.17010E-05  6272   0.418E-03    0.201E-02
DAV:   5    -0.360885333486E+04    0.38413E-06   -0.67300E-06  5760   0.262E-03
 augmentation electrons   1811.65020536526     
 soft         electrons  0.000000000000000E+000
 total        electrons   1811.65020536526     
 augmentation electrons -6.702086579100063E-002
 soft         electrons  0.000000000000000E+000
 total        electrons -6.702086579100063E-002
 augmentation electrons   2063.44418977525     
 soft         electrons  0.000000000000000E+000
 total        electrons   2063.44418977525     
 augmentation electrons   2005.92702990325     
 soft         electrons  0.000000000000000E+000
 total        electrons   2005.92702990325     
 augmentation electrons   54.5365357510879     
 soft         electrons   1757.11360996638     
 total        electrons   1811.65014571747     
 augmentation electrons   31.8006838287285     
 soft         electrons   1757.11360996638     
 total        electrons   51.9329543612203     
 translations:           0           1           0
  20 F= -.36467533E+04 E0= -.36467533E+04  d E =-.859055E-02  mag=    52.0000
 ZBRENT: can't locate minimum, use default step
 trial-energy change:   -0.008591  1 .order   -0.009229   -0.010009   -0.008449
 step:   0.4122(harm=  0.6612)  dis= 0.00472  next Energy= -3646.776855 (dE=-0.321E-01)
 bond charge predicted
       N       E                     dE             d eps       ncg     rms          rms(c)
DAV:   1    -0.360887028406E+04   -0.16949E-01   -0.94375E-01  5120   0.930E-01    0.271E-01
DAV:   2    -0.360887247704E+04   -0.21930E-02   -0.26871E-02  6400   0.133E-01    0.150E-01
DAV:   3    -0.360887235338E+04    0.12366E-03   -0.78226E-04  5888   0.279E-02    0.980E-02
DAV:   4    -0.360887229948E+04    0.53902E-04   -0.15532E-04  6656   0.126E-02    0.604E-02
DAV:   5    -0.360887229365E+04    0.58228E-05   -0.60669E-05  5632   0.780E-03    0.157E-02
DAV:   6    -0.360887229488E+04   -0.12261E-05   -0.11003E-05  6400   0.331E-03    0.595E-03
DAV:   7    -0.360887229527E+04   -0.38733E-06   -0.22668E-06  5120   0.147E-03
 augmentation electrons   1811.65771024963     
 soft         electrons  0.000000000000000E+000
 total        electrons   1811.65771024963     
 augmentation electrons -6.719310077628485E-002
 soft         electrons  0.000000000000000E+000
 total        electrons -6.719310077628485E-002
 augmentation electrons   2067.38117040931     
 soft         electrons  0.000000000000000E+000
 total        electrons   2067.38117040931     
 augmentation electrons   2009.86401053731     
 soft         electrons  0.000000000000000E+000
 total        electrons   2009.86401053731     
 augmentation electrons   54.5540580082085     
 soft         electrons   1757.10359333160     
 total        electrons   1811.65765133981     
 augmentation electrons   31.8010295176659     
 soft         electrons   1757.10359333160     
 total        electrons   51.9327823237031     
 translations:           0           1           0
  21 F= -.36467699E+04 E0= -.36467699E+04  d E =-.251336E-01  mag=    52.0000
 curvature:  -0.34 expect dE=-0.139E-01 dE for cont linesearch -0.393E-02
 ZBRENT: increasing intervall
 opt :   1.0304  next Energy= -3646.766147 (dE=-0.214E-01)
 bond charge predicted
       N       E                     dE             d eps       ncg     rms          rms(c)
DAV:   1    -0.360886143634E+04    0.10859E-01   -0.37734E+00  5120   0.186E+00    0.542E-01
DAV:   2    -0.360887014635E+04   -0.87100E-02   -0.10768E-01  6400   0.267E-01    0.301E-01
DAV:   3    -0.360886965536E+04    0.49099E-03   -0.31739E-03  5760   0.559E-02    0.196E-01
DAV:   4    -0.360886943211E+04    0.22325E-03   -0.63473E-04  6656   0.254E-02    0.119E-01
DAV:   5    -0.360886941015E+04    0.21962E-04   -0.24445E-04  5632   0.156E-02    0.313E-02
DAV:   6    -0.360886941383E+04   -0.36834E-05   -0.42542E-05  6528   0.648E-03    0.120E-02
DAV:   7    -0.360886941463E+04   -0.79676E-06   -0.11012E-05  6016   0.300E-03    0.669E-03
DAV:   8    -0.360886941472E+04   -0.97920E-07   -0.40587E-06  5248   0.150E-03
 augmentation electrons   1811.65583967021     
 soft         electrons  0.000000000000000E+000
 total        electrons   1811.65583967021     
 augmentation electrons -6.720745906034836E-002
 soft         electrons  0.000000000000000E+000
 total        electrons -6.720745906034836E-002
 augmentation electrons   2053.16423162783     
 soft         electrons  0.000000000000000E+000
 total        electrons   2053.16423162783     
 augmentation electrons   1995.64707175583     
 soft         electrons  0.000000000000000E+000
 total        electrons   1995.64707175583     
 augmentation electrons   54.5722626211253     
 soft         electrons   1757.08351919021     
 total        electrons   1811.65578181133     
 augmentation electrons   31.8020777588050     
 soft         electrons   1757.08351919021     
 total        electrons   51.9327683850511     
 translations:           0           1           0
  22 F= -.36467622E+04 E0= -.36467622E+04  d E =-.174587E-01  mag=    52.0000
 curvature:   0.32 expect dE= 0.593E-01 dE for cont linesearch  0.664E-02
 ZBRENT: bracketing found
 ZBRENT: interpolating
 opt :   0.6769  next Energy= -3646.774902 (dE=-0.302E-01)
 bond charge predicted
       N       E                     dE             d eps       ncg     rms          rms(c)
DAV:   1    -0.360887516153E+04   -0.57469E-02   -0.12326E+00  5120   0.106E+00    0.311E-01
DAV:   2    -0.360887798407E+04   -0.28225E-02   -0.35068E-02  6400   0.153E-01    0.172E-01
DAV:   3    -0.360887782136E+04    0.16271E-03   -0.10246E-03  6016   0.321E-02    0.113E-01
DAV:   4    -0.360887774760E+04    0.73760E-04   -0.19363E-04  6528   0.141E-02    0.710E-02
DAV:   5    -0.360887773400E+04    0.13596E-04   -0.81889E-05  5760   0.925E-03    0.183E-02
DAV:   6    -0.360887773480E+04   -0.79570E-06   -0.18302E-05  6400   0.416E-03    0.701E-03
DAV:   7    -0.360887773414E+04    0.65616E-06   -0.40661E-06  6016   0.182E-03
 augmentation electrons   1811.65898895842     
 soft         electrons  0.000000000000000E+000
 total        electrons   1811.65898895842     
 augmentation electrons -6.730933615393046E-002
 soft         electrons  0.000000000000000E+000
 total        electrons -6.730933615393046E-002
 augmentation electrons   2064.36656592062     
 soft         electrons  0.000000000000000E+000
 total        electrons   2064.36656592062     
 augmentation electrons   2006.84940604862     
 soft         electrons  0.000000000000000E+000
 total        electrons   2006.84940604862     
 augmentation electrons   54.5640239936765     
 soft         electrons   1757.09490656631     
 total        electrons   1811.65893055998     
 augmentation electrons   31.8013886556704     
 soft         electrons   1757.09490656631     
 total        electrons   51.9326662727903     
 translations:           0           1           0
  23 F= -.36467732E+04 E0= -.36467732E+04  d E =-.284925E-01  mag=    52.0000
 curvature:  -0.24 expect dE=-0.168E-01 dE for cont linesearch -0.266E-06
 trial: gam= 0.72045 g(F)=  0.687E-01 g(S)=  0.000E+00 ort = 0.369E-03 (trialstep = 0.203E+00)
 search vector abs. value=  0.134E+00
 bond charge predicted
       N       E                     dE             d eps       ncg     rms          rms(c)
DAV:   1    -0.360888715421E+04   -0.94194E-02   -0.38233E-01  5120   0.613E-01    0.203E-01
DAV:   2    -0.360888803057E+04   -0.87636E-03   -0.11904E-02  6144   0.909E-02    0.115E-01
DAV:   3    -0.360888797514E+04    0.55431E-04   -0.43934E-04  6912   0.206E-02    0.745E-02
DAV:   4    -0.360888795167E+04    0.23473E-04   -0.47719E-05  6400   0.668E-03    0.499E-02
DAV:   5    -0.360888794030E+04    0.11369E-04   -0.43392E-05  6400   0.683E-03    0.145E-02
DAV:   6    -0.360888794209E+04   -0.17934E-05   -0.16127E-05  6528   0.344E-03    0.478E-03
DAV:   7    -0.360888794239E+04   -0.29453E-06   -0.26805E-06  4992   0.117E-03
 augmentation electrons   1811.65956564205     
 soft         electrons  0.000000000000000E+000
 total        electrons   1811.65956564205     
 augmentation electrons -6.752778303291174E-002
 soft         electrons  0.000000000000000E+000
 total        electrons -6.752778303291174E-002
 augmentation electrons   2051.42366008432     
 soft         electrons  0.000000000000000E+000
 total        electrons   2051.42366008432     
 augmentation electrons   1993.90650021232     
 soft         electrons  0.000000000000000E+000
 total        electrons   1993.90650021232     
 augmentation electrons   54.5719769550420     
 soft         electrons   1757.08753057872     
 total        electrons   1811.65950753376     
 augmentation electrons   31.8019454652728     
 soft         electrons   1757.08753057872     
 total        electrons   51.9324479484449     
 translations:           0           1           0
  24 F= -.36467816E+04 E0= -.36467816E+04  d E =-.834487E-02  mag=    52.0000
 trial-energy change:   -0.008345  1 .order   -0.010493   -0.014012   -0.006974
 step:   0.4047(harm=  0.4047)  dis= 0.00512  next Energy= -3646.787180 (dE=-0.139E-01)
 bond charge predicted
       N       E                     dE             d eps       ncg     rms          rms(c)
DAV:   1    -0.360889039084E+04   -0.24487E-02   -0.37576E-01  5120   0.608E-01    0.202E-01
DAV:   2    -0.360889125448E+04   -0.86365E-03   -0.11744E-02  6144   0.903E-02    0.114E-01
DAV:   3    -0.360889119899E+04    0.55496E-04   -0.43690E-04  6912   0.205E-02    0.738E-02
DAV:   4    -0.360889117599E+04    0.22995E-04   -0.48910E-05  6400   0.669E-03    0.494E-02
DAV:   5    -0.360889116578E+04    0.10218E-04   -0.46305E-05  6528   0.664E-03    0.143E-02
DAV:   6    -0.360889116787E+04   -0.20990E-05   -0.17165E-05  6528   0.331E-03    0.497E-03
DAV:   7    -0.360889116848E+04   -0.60932E-06   -0.39949E-06  5120   0.116E-03
 augmentation electrons   1811.66104399120     
 soft         electrons  0.000000000000000E+000
 total        electrons   1811.66104399120     
 augmentation electrons -6.753486501583436E-002
 soft         electrons  0.000000000000000E+000
 total        electrons -6.753486501583436E-002
 augmentation electrons   2037.92566958873     
 soft         electrons  0.000000000000000E+000
 total        electrons   2037.92566958873     
 augmentation electrons   1980.40850971673     
 soft         electrons  0.000000000000000E+000
 total        electrons   1980.40850971673     
 augmentation electrons   54.5808648912737     
 soft         electrons   1757.08012122295     
 total        electrons   1811.66098611423     
 augmentation electrons   31.8027261568427     
 soft         electrons   1757.08012122295     
 total        electrons   51.9324409927523     
 translations:           0           1           0
  25 F= -.36467829E+04 E0= -.36467829E+04  d E =-.970868E-02  mag=    52.0000
 curvature:  -0.39 expect dE=-0.111E-01 dE for cont linesearch -0.881E-07
 trial: gam= 0.40118 g(F)=  0.283E-01 g(S)=  0.000E+00 ort = 0.173E-03 (trialstep = 0.244E+00)
 search vector abs. value=  0.500E-01
 bond charge predicted
       N       E                     dE             d eps       ncg     rms          rms(c)
DAV:   1    -0.360889526879E+04   -0.41009E-02   -0.23173E-01  5504   0.488E-01    0.174E-01
DAV:   2    -0.360889603151E+04   -0.76272E-03   -0.91770E-03  6144   0.814E-02    0.101E-01
DAV:   3    -0.360889599737E+04    0.34139E-04   -0.32038E-04  6784   0.179E-02    0.619E-02
DAV:   4    -0.360889598454E+04    0.12835E-04   -0.37999E-05  6528   0.570E-03    0.415E-02
DAV:   5    -0.360889597706E+04    0.74787E-05   -0.34297E-05  6784   0.545E-03    0.152E-02
DAV:   6    -0.360889597926E+04   -0.22058E-05   -0.21924E-05  6528   0.314E-03    0.496E-03
DAV:   7    -0.360889598022E+04   -0.95855E-06   -0.45534E-06  4992   0.103E-03
 augmentation electrons   1811.66583821953     
 soft         electrons  0.000000000000000E+000
 total        electrons   1811.66583821953     
 augmentation electrons -6.770799326128780E-002
 soft         electrons  0.000000000000000E+000
 total        electrons -6.770799326128780E-002
 augmentation electrons   2024.00695856436     
 soft         electrons  0.000000000000000E+000
 total        electrons   2024.00695856436     
 augmentation electrons   1966.48979869236     
 soft         electrons  0.000000000000000E+000
 total        electrons   1966.48979869236     
 augmentation electrons   54.5896927487574     
 soft         electrons   1757.07608723194     
 total        electrons   1811.66577998070     
 augmentation electrons   31.8033990705376     
 soft         electrons   1757.07608723194     
 total        electrons   51.9322679279031     
 translations:           0           1           0
  26 F= -.36467865E+04 E0= -.36467865E+04  d E =-.360758E-02  mag=    52.0000
 trial-energy change:   -0.003608  1 .order   -0.004977   -0.006902   -0.003053
 step:   0.4368(harm=  0.4368)  dis= 0.00381  next Energy= -3646.789129 (dE=-0.619E-02)
 bond charge predicted
       N       E                     dE             d eps       ncg     rms          rms(c)
DAV:   1    -0.360889667563E+04   -0.69637E-03   -0.14602E-01  5504   0.388E-01    0.138E-01
DAV:   2    -0.360889715812E+04   -0.48248E-03   -0.57904E-03  6144   0.647E-02    0.798E-02
DAV:   3    -0.360889713703E+04    0.21090E-04   -0.20405E-04  6784   0.142E-02    0.492E-02
DAV:   4    -0.360889712948E+04    0.75488E-05   -0.25942E-05  6656   0.458E-03    0.331E-02
DAV:   5    -0.360889712593E+04    0.35501E-05   -0.34521E-05  6272   0.449E-03    0.125E-02
DAV:   6    -0.360889712853E+04   -0.26002E-05   -0.25567E-05  6656   0.264E-03    0.523E-03
DAV:   7    -0.360889713012E+04   -0.15945E-05   -0.66714E-06  5248   0.957E-04    0.472E-03
DAV:   8    -0.360889713166E+04   -0.15343E-05   -0.99800E-06  4992   0.630E-04    0.462E-03
DAV:   9    -0.360889713293E+04   -0.12779E-05   -0.58854E-06  5248   0.438E-04    0.470E-03
DAV:  10    -0.360889712534E+04    0.75958E-05   -0.79629E-05  6272   0.253E-03    0.486E-03
DAV:  11    -0.360889710557E+04    0.19769E-04   -0.27335E-04  6272   0.349E-03    0.561E-03
DAV:  12    -0.360889708824E+04    0.17326E-04   -0.46752E-04  6272   0.345E-03    0.651E-03
DAV:  13    -0.360889710251E+04   -0.14263E-04   -0.13210E-04  6272   0.255E-03    0.458E-03
DAV:  14    -0.360889711529E+04   -0.12780E-04   -0.74113E-06  5632   0.258E-03    0.258E-03
DAV:  15    -0.360889711581E+04   -0.52439E-06   -0.16096E-06  4864   0.463E-04
 augmentation electrons   1811.67145284795     
 soft         electrons  0.000000000000000E+000
 total        electrons   1811.67145284795     
 augmentation electrons -6.780569928352059E-002
 soft         electrons  0.000000000000000E+000
 total        electrons -6.780569928352059E-002
 augmentation electrons   2014.01801519091     
 soft         electrons  0.000000000000000E+000
 total        electrons   2014.01801519091     
 augmentation electrons   1956.50085531891     
 soft         electrons  0.000000000000000E+000
 total        electrons   1956.50085531891     
 augmentation electrons   54.5985538233029     
 soft         electrons   1757.07284049075     
 total        electrons   1811.67139431406     
 augmentation electrons   31.8039630173963     
 soft         electrons   1757.07284049075     
 total        electrons   51.9321702721329     
 translations:           0           1           0
  27 F= -.36467867E+04 E0= -.36467867E+04  d E =-.377885E-02  mag=    52.0000
 curvature:  -0.39 expect dE=-0.472E-02 dE for cont linesearch -0.351E-05
 trial: gam= 0.41377 g(F)=  0.122E-01 g(S)=  0.000E+00 ort = 0.675E-03 (trialstep = 0.282E+00)
 search vector abs. value=  0.214E-01
 bond charge predicted
       N       E                     dE             d eps       ncg     rms          rms(c)
DAV:   1    -0.360889986564E+04   -0.27504E-02   -0.12066E-01  5504   0.340E-01    0.141E-01
DAV:   2    -0.360890031286E+04   -0.44722E-03   -0.51264E-03  6144   0.568E-02    0.808E-02
DAV:   3    -0.360890029913E+04    0.13727E-04   -0.15828E-04  6016   0.125E-02    0.477E-02
DAV:   4    -0.360890029242E+04    0.67140E-05   -0.17805E-05  6528   0.366E-03    0.321E-02
DAV:   5    -0.360890028657E+04    0.58443E-05   -0.23143E-05  6656   0.408E-03    0.135E-02
DAV:   6    -0.360890028743E+04   -0.85481E-06   -0.14950E-05  6656   0.241E-03    0.394E-03
DAV:   7    -0.360890028805E+04   -0.61613E-06   -0.32748E-06  4992   0.833E-04
 augmentation electrons   1811.67768074770     
 soft         electrons  0.000000000000000E+000
 total        electrons   1811.67768074770     
 augmentation electrons -6.786435522105488E-002
 soft         electrons  0.000000000000000E+000
 total        electrons -6.786435522105488E-002
 augmentation electrons   2003.12714681086     
 soft         electrons  0.000000000000000E+000
 total        electrons   2003.12714681086     
 augmentation electrons   1945.60998693886     
 soft         electrons  0.000000000000000E+000
 total        electrons   1945.60998693886     
 augmentation electrons   54.6053678554775     
 soft         electrons   1757.07225394103     
 total        electrons   1811.67762179651     
 augmentation electrons   31.8045877556717     
 soft         electrons   1757.07225394103     
 total        electrons   51.9321116415971     
 translations:           0           1           0
  28 F= -.36467895E+04 E0= -.36467895E+04  d E =-.281988E-02  mag=    52.0000
 trial-energy change:   -0.002820  1 .order   -0.002855   -0.003535   -0.002174
 step:   0.7331(harm=  0.7331)  dis= 0.00482  next Energy= -3646.791311 (dE=-0.459E-02)
 bond charge predicted
       N       E                     dE             d eps       ncg     rms          rms(c)
DAV:   1    -0.360890138554E+04   -0.10981E-02   -0.30835E-01  5248   0.543E-01    0.225E-01
DAV:   2    -0.360890252829E+04   -0.11428E-02   -0.13113E-02  6144   0.908E-02    0.129E-01
[...]
 soft         electrons  0.000000000000000E+000
 total        electrons   1942.49534672886     
 augmentation electrons   54.7229245189868     
 soft         electrons   1757.07927775346     
 total        electrons   1811.80220227244     
 augmentation electrons   31.8129996525951     
 soft         electrons   1757.07927775346     
 total        electrons   51.9349154441253     
 translations:           0           1           0
 101 F= -.36468816E+04 E0= -.36468816E+04  d E =-.137315E-02  mag=    52.0000
 trial-energy change:   -0.001373  1 .order   -0.001057   -0.001406   -0.000708
 step:   0.3294(harm=  0.5380)  dis= 0.00121  next Energy= -3646.881686 (dE=-0.146E-02)
 bond charge predicted
       N       E                     dE             d eps       ncg     rms          rms(c)
DAV:   1    -0.360899175877E+04   -0.81951E-04   -0.59420E-03  6016   0.837E-02    0.273E-02
DAV:   2    -0.360899178177E+04   -0.22997E-04   -0.24312E-04  5632   0.122E-02    0.148E-02
DAV:   3    -0.360899178080E+04    0.97118E-06   -0.90087E-06  5760   0.292E-03
 augmentation electrons   1811.80312228616     
 soft         electrons  0.000000000000000E+000
 total        electrons   1811.80312228616     
 augmentation electrons -6.508072390496109E-002
 soft         electrons  0.000000000000000E+000
 total        electrons -6.508072390496109E-002
 augmentation electrons   1999.23992571180     
 soft         electrons  0.000000000000000E+000
 total        electrons   1999.23992571180     
 augmentation electrons   1941.72276583980     
 soft         electrons  0.000000000000000E+000
 total        electrons   1941.72276583980     
 augmentation electrons   54.7236587496373     
 soft         electrons   1757.07940890120     
 total        electrons   1811.80306765084     
 augmentation electrons   31.8131263540351     
 soft         electrons   1757.07940890120     
 total        electrons   51.9348956823045     
 translations:           0           1           0
 102 F= -.36468818E+04 E0= -.36468818E+04  d E =-.160436E-02  mag=    52.0000
 curvature:  -0.53 expect dE=-0.133E-02 dE for cont linesearch -0.745E-04
 ZBRENT: increasing intervall
 opt :   0.4540  next Energy= -3646.881972 (dE=-0.175E-02)
 bond charge predicted
       N       E                     dE             d eps       ncg     rms          rms(c)
DAV:   1    -0.360899176245E+04    0.19321E-04   -0.23169E-02  5504   0.167E-01    0.522E-02
DAV:   2    -0.360899185214E+04   -0.89694E-04   -0.92946E-04  5632   0.236E-02    0.287E-02
DAV:   3    -0.360899185060E+04    0.15491E-05   -0.34192E-05  5760   0.565E-03    0.176E-02
DAV:   4    -0.360899184953E+04    0.10652E-05   -0.43645E-06  5888   0.193E-03    0.109E-02
DAV:   5    -0.360899184912E+04    0.40668E-06   -0.60309E-06  5504   0.172E-03
 augmentation electrons   1811.80483457728     
 soft         electrons  0.000000000000000E+000
 total        electrons   1811.80483457728     
 augmentation electrons -6.512083558049162E-002
 soft         electrons  0.000000000000000E+000
 total        electrons -6.512083558049162E-002
 augmentation electrons   1997.70404098958     
 soft         electrons  0.000000000000000E+000
 total        electrons   1997.70404098958     
 augmentation electrons   1940.18688111758     
 soft         electrons  0.000000000000000E+000
 total        electrons   1940.18688111758     
 augmentation electrons   54.7251922919929     
 soft         electrons   1757.07958742563     
 total        electrons   1811.80477971763     
 augmentation electrons   31.8133225426949     
 soft         electrons   1757.07958742563     
 total        electrons   51.9348555370804     
 translations:           0           1           0
 103 F= -.36468821E+04 E0= -.36468821E+04  d E =-.188025E-02  mag=    52.0000
 curvature:  -1.02 expect dE=-0.346E-02 dE for cont linesearch -0.966E-05
 trial: gam= 0.51883 g(F)=  0.341E-02 g(S)=  0.000E+00 ort = 0.495E-03 (trialstep = 0.305E+00)
 search vector abs. value=  0.108E-01
 bond charge predicted
       N       E                     dE             d eps       ncg     rms          rms(c)
DAV:   1    -0.360899246662E+04   -0.61709E-03   -0.62679E-02  5632   0.282E-01    0.885E-02
DAV:   2    -0.360899269894E+04   -0.23232E-03   -0.25221E-03  5632   0.416E-02    0.487E-02
DAV:   3    -0.360899269272E+04    0.62279E-05   -0.92668E-05  5760   0.985E-03    0.295E-02
DAV:   4    -0.360899268822E+04    0.44910E-05   -0.15106E-05  6144   0.385E-03    0.176E-02
DAV:   5    -0.360899268685E+04    0.13715E-05   -0.10233E-05  6144   0.265E-03    0.516E-03
DAV:   6    -0.360899268736E+04   -0.50994E-06   -0.42627E-06  5760   0.115E-03
 augmentation electrons   1811.80830077692     
 soft         electrons  0.000000000000000E+000
 total        electrons   1811.80830077692     
 augmentation electrons -6.516236897637857E-002
 soft         electrons  0.000000000000000E+000
 total        electrons -6.516236897637857E-002
 augmentation electrons   1994.72487594817     
 soft         electrons  0.000000000000000E+000
 total        electrons   1994.72487594817     
 augmentation electrons   1937.20771607617     
 soft         electrons  0.000000000000000E+000
 total        electrons   1937.20771607617     
 augmentation electrons   54.7282920432547     
 soft         electrons   1757.07995330212     
 total        electrons   1811.80824534538     
 augmentation electrons   31.8136723745458     
 soft         electrons   1757.07995330212     
 total        electrons   51.9348139291415     
 translations:           0           1           0
 104 F= -.36468834E+04 E0= -.36468834E+04  d E =-.132658E-02  mag=    52.0000
 trial-energy change:   -0.001327  1 .order   -0.000761   -0.001117   -0.000405
 step:   0.3324(harm=  0.4776)  dis= 0.00083  next Energy= -3646.883452 (dE=-0.135E-02)
 bond charge predicted
       N       E                     dE             d eps       ncg     rms          rms(c)
DAV:   1    -0.360899272831E+04   -0.41457E-04   -0.53757E-04  6144   0.260E-02    0.883E-03
DAV:   2    -0.360899273084E+04   -0.25279E-05   -0.25733E-05  5632   0.403E-03    0.514E-03
DAV:   3    -0.360899273113E+04   -0.28846E-06   -0.29642E-06  4992   0.102E-03
 augmentation electrons   1811.80863490971     
 soft         electrons  0.000000000000000E+000
 total        electrons   1811.80863490971     
 augmentation electrons -6.514737921060899E-002
 soft         electrons  0.000000000000000E+000
 total        electrons -6.514737921060899E-002
 augmentation electrons   1994.45490304137     
 soft         electrons  0.000000000000000E+000
 total        electrons   1994.45490304137     
 augmentation electrons   1936.93774316937     
 soft         electrons  0.000000000000000E+000
 total        electrons   1936.93774316937     
 augmentation electrons   54.7286036693087     
 soft         electrons   1757.07997575664     
 total        electrons   1811.80857942595     
 augmentation electrons   31.8137285087052     
 soft         electrons   1757.07997575664     
 total        electrons   51.9348289118807     
 translations:           0           1           0
 105 F= -.36468835E+04 E0= -.36468835E+04  d E =-.142188E-02  mag=    52.0000
 curvature:  -0.21 expect dE=-0.315E-03 dE for cont linesearch -0.248E-04
 ZBRENT: increasing intervall
 opt :   0.3882  next Energy= -3646.883581 (dE=-0.147E-02)
 bond charge predicted
       N       E                     dE             d eps       ncg     rms          rms(c)
DAV:   1    -0.360899279030E+04   -0.59459E-04   -0.20634E-03  6144   0.516E-02    0.160E-02
DAV:   2    -0.360899279874E+04   -0.84436E-05   -0.86538E-05  5632   0.748E-03    0.917E-03
DAV:   3    -0.360899279904E+04   -0.30086E-06   -0.57916E-06  5760   0.179E-03
 augmentation electrons   1811.80926357111     
 soft         electrons  0.000000000000000E+000
 total        electrons   1811.80926357111     
 augmentation electrons -6.516532520985927E-002
 soft         electrons  0.000000000000000E+000
 total        electrons -6.516532520985927E-002
 augmentation electrons   1993.91639039402     
 soft         electrons  0.000000000000000E+000
 total        electrons   1993.91639039402     
 augmentation electrons   1936.39923052201     
 soft         electrons  0.000000000000000E+000
 total        electrons   1936.39923052201     
 augmentation electrons   54.7291742041982     
 soft         electrons   1757.08003377872     
 total        electrons   1811.80920798292     
 augmentation electrons   31.8137855321057     
 soft         electrons   1757.08003377872     
 total        electrons   51.9348109521083     
 translations:           0           1           0
 106 F= -.36468837E+04 E0= -.36468837E+04  d E =-.158434E-02  mag=    52.0000
 curvature:  -0.44 expect dE=-0.783E-03 dE for cont linesearch -0.188E-04
 ZBRENT: increasing intervall
 opt :   0.4998  next Energy= -3646.883716 (dE=-0.161E-02)
 bond charge predicted
       N       E                     dE             d eps       ncg     rms          rms(c)
DAV:   1    -0.360899282955E+04   -0.30810E-04   -0.82906E-03  5632   0.103E-01    0.317E-02
DAV:   2    -0.360899286184E+04   -0.32293E-04   -0.33860E-04  5632   0.150E-02    0.178E-02
DAV:   3    -0.360899286162E+04    0.22179E-06   -0.15845E-05  5760   0.354E-03    0.115E-02
DAV:   4    -0.360899286221E+04   -0.58730E-06   -0.10772E-05  5760   0.155E-03    0.762E-03
DAV:   5    -0.360899286403E+04   -0.18165E-05   -0.27826E-05  5504   0.150E-03    0.534E-03
DAV:   6    -0.360899286604E+04   -0.20103E-05   -0.10500E-05  5120   0.810E-04    0.532E-03
DAV:   7    -0.360899286424E+04    0.18003E-05   -0.85419E-06  5760   0.142E-03    0.494E-03
DAV:   8    -0.360899283670E+04    0.27540E-04   -0.29965E-04  5760   0.496E-03    0.612E-03
DAV:   9    -0.360899282710E+04    0.95990E-05   -0.31096E-04  6016   0.259E-03    0.628E-03
DAV:  10    -0.360899284413E+04   -0.17033E-04   -0.71861E-05  5888   0.276E-03    0.375E-03
DAV:  11    -0.360899285035E+04   -0.62210E-05   -0.14625E-05  5760   0.167E-03    0.201E-03
DAV:  12    -0.360899285243E+04   -0.20809E-05   -0.23677E-06  5632   0.129E-03    0.103E-03
DAV:  13    -0.360899285254E+04   -0.10522E-06   -0.46508E-07  4352   0.192E-04
 augmentation electrons   1811.81053263225     
 soft         electrons  0.000000000000000E+000
 total        electrons   1811.81053263225     
 augmentation electrons -6.522149514249800E-002
 soft         electrons  0.000000000000000E+000
 total        electrons -6.522149514249800E-002
 augmentation electrons   1992.84507721565     
 soft         electrons  0.000000000000000E+000
 total        electrons   1992.84507721565     
 augmentation electrons   1935.32791734365     
 soft         electrons  0.000000000000000E+000
 total        electrons   1935.32791734365     
 augmentation electrons   54.7303040963917     
 soft         electrons   1757.08017273866     
 total        electrons   1811.81047683505     
 augmentation electrons   31.8138659396721     
 soft         electrons   1757.08017273866     
 total        electrons   51.9347547570334     
 translations:           0           1           0
 107 F= -.36468839E+04 E0= -.36468839E+04  d E =-.180357E-02  mag=    52.0000
 curvature:  -0.59 expect dE=-0.169E-02 dE for cont linesearch -0.130E-05
 trial: gam= 0.97049 g(F)=  0.286E-02 g(S)=  0.000E+00 ort =-0.155E-03 (trialstep = 0.292E+00)
 search vector abs. value=  0.128E-01
 bond charge predicted
       N       E                     dE             d eps       ncg     rms          rms(c)
DAV:   1    -0.360899300083E+04   -0.14840E-03   -0.63959E-02  5632   0.292E-01    0.921E-02
DAV:   2    -0.360899325332E+04   -0.25249E-03   -0.26384E-03  5632   0.418E-02    0.486E-02
DAV:   3    -0.360899325008E+04    0.32363E-05   -0.87620E-05  5632   0.949E-03    0.290E-02
DAV:   4    -0.360899324604E+04    0.40418E-05   -0.10929E-05  6528   0.348E-03    0.176E-02
DAV:   5    -0.360899324463E+04    0.14139E-05   -0.62767E-06  5888   0.274E-03    0.461E-03
DAV:   6    -0.360899324483E+04   -0.20230E-06   -0.18669E-06  5376   0.114E-03
 augmentation electrons   1811.81364275348     
 soft         electrons  0.000000000000000E+000
 total        electrons   1811.81364275348     
 augmentation electrons -6.534529823666627E-002
 soft         electrons  0.000000000000000E+000
 total        electrons -6.534529823666627E-002
 augmentation electrons   1989.75563338996     
 soft         electrons  0.000000000000000E+000
 total        electrons   1989.75563338996     
 augmentation electrons   1932.23847351796     
 soft         electrons  0.000000000000000E+000
 total        electrons   1932.23847351796     
 augmentation electrons   54.7331216623579     
 soft         electrons   1757.08046465063     
 total        electrons   1811.81358631299     
 augmentation electrons   31.8140646508619     
 soft         electrons   1757.08046465063     
 total        electrons   51.9346308606048     
 translations:           0           1           0
 108 F= -.36468847E+04 E0= -.36468847E+04  d E =-.831908E-03  mag=    52.0000
 trial-energy change:   -0.000832  1 .order   -0.000569   -0.000791   -0.000348
 step:   0.3365(harm=  0.5202)  dis= 0.00104  next Energy= -3646.884769 (dE=-0.860E-03)
 bond charge predicted
       N       E                     dE             d eps       ncg     rms          rms(c)
DAV:   1    -0.360899326231E+04   -0.17677E-04   -0.15341E-03  6144   0.450E-02    0.145E-02
DAV:   2    -0.360899326847E+04   -0.61603E-05   -0.65588E-05  5632   0.661E-03    0.763E-03
DAV:   3    -0.360899326832E+04    0.14987E-06   -0.24700E-06  4992   0.149E-03
 augmentation electrons   1811.81411249244     
 soft         electrons  0.000000000000000E+000
 total        electrons   1811.81411249244     
 augmentation electrons -6.537312524390312E-002
 soft         electrons  0.000000000000000E+000
 total        electrons -6.537312524390312E-002
 augmentation electrons   1989.28621564557     
 soft         electrons  0.000000000000000E+000
 total        electrons   1989.28621564557     
 augmentation electrons   1931.76905577357     
 soft         electrons  0.000000000000000E+000
 total        electrons   1931.76905577357     
 augmentation electrons   54.7335415745298     
 soft         electrons   1757.08051437860     
 total        electrons   1811.81405595313     
 augmentation electrons   31.8140948937497     
 soft         electrons   1757.08051437860     
 total        electrons   51.9346030192020     
 translations:           0           1           0
 109 F= -.36468848E+04 E0= -.36468848E+04  d E =-.928641E-03  mag=    52.0000
 curvature:  -0.43 expect dE=-0.882E-03 dE for cont linesearch -0.330E-04
 ZBRENT: increasing intervall
 opt :   0.4262  next Energy= -3646.884909 (dE=-0.999E-03)
 bond charge predicted
       N       E                     dE             d eps       ncg     rms          rms(c)
DAV:   1    -0.360899326451E+04    0.39562E-05   -0.59486E-03  5632   0.896E-02    0.275E-02
DAV:   2    -0.360899328839E+04   -0.23883E-04   -0.24539E-04  5632   0.126E-02    0.146E-02
DAV:   3    -0.360899328817E+04    0.22698E-06   -0.85431E-06  5760   0.284E-03
 augmentation electrons   1811.81506173785     
 soft         electrons  0.000000000000000E+000
 total        electrons   1811.81506173785     
 augmentation electrons -6.543510102749632E-002
 soft         electrons  0.000000000000000E+000
 total        electrons -6.543510102749632E-002
 augmentation electrons   1988.35195340822     
 soft         electrons  0.000000000000000E+000
 total        electrons   1988.35195340822     
 augmentation electrons   1930.83479353622     
 soft         electrons  0.000000000000000E+000
 total        electrons   1930.83479353622     
 augmentation electrons   54.7344129751923     
 soft         electrons   1757.08059202585     
 total        electrons   1811.81500500104     
 augmentation electrons   31.8141367044996     
 soft         electrons   1757.08059202585     
 total        electrons   51.9345410149235     
 translations:           0           1           0
 110 F= -.36468850E+04 E0= -.36468850E+04  d E =-.108861E-02  mag=    52.0000
 curvature:  -0.92 expect dE=-0.214E-02 dE for cont linesearch -0.246E-04
 ZBRENT: increasing intervall
 opt :   0.6056  next Energy= -3646.885031 (dE=-0.112E-02)
 bond charge predicted
       N       E                     dE             d eps       ncg     rms          rms(c)
DAV:   1    -0.360899312290E+04    0.16549E-03   -0.23889E-02  5632   0.179E-01    0.550E-02
DAV:   2    -0.360899321873E+04   -0.95821E-04   -0.98691E-04  5632   0.254E-02    0.294E-02
DAV:   3    -0.360899321783E+04    0.89168E-06   -0.32904E-05  5760   0.567E-03    0.179E-02
DAV:   4    -0.360899321664E+04    0.11915E-05   -0.50173E-06  6528   0.209E-03    0.108E-02
DAV:   5    -0.360899321642E+04    0.22571E-06   -0.63598E-06  5504   0.173E-03
 augmentation electrons   1811.81706259904     
 soft         electrons  0.000000000000000E+000
 total        electrons   1811.81706259904     
 augmentation electrons -6.549432932222689E-002
 soft         electrons  0.000000000000000E+000
 total        electrons -6.549432932222689E-002
 augmentation electrons   1986.50142393000     
 soft         electrons  0.000000000000000E+000
 total        electrons   1986.50142393000     
 augmentation electrons   1928.98426405800     
 soft         electrons  0.000000000000000E+000
 total        electrons   1928.98426405800     
 augmentation electrons   54.7362334634360     
 soft         electrons   1757.08077200431     
 total        electrons   1811.81700546775     
 augmentation electrons   31.8142653068065     
 soft         electrons   1757.08077200431     
 total        electrons   51.9344817300352     
 translations:           0           1           0
 111 F= -.36468852E+04 E0= -.36468852E+04  d E =-.127607E-02  mag=    52.0000
 curvature:  -1.22 expect dE=-0.438E-02 dE for cont linesearch -0.513E-05
 trial: gam= 1.03894 g(F)=  0.357E-02 g(S)=  0.000E+00 ort =-0.231E-03 (trialstep = 0.268E+00)
 search vector abs. value=  0.169E-01
 bond charge predicted
       N       E                     dE             d eps       ncg     rms          rms(c)
DAV:   1    -0.360899305449E+04    0.16215E-03   -0.70881E-02  5504   0.301E-01    0.948E-02
DAV:   2    -0.360899331434E+04   -0.25985E-03   -0.27604E-03  5632   0.437E-02    0.504E-02
DAV:   3    -0.360899331059E+04    0.37485E-05   -0.87078E-05  5760   0.946E-03    0.308E-02
DAV:   4    -0.360899330647E+04    0.41219E-05   -0.13809E-05  6528   0.369E-03    0.183E-02
DAV:   5    -0.360899330619E+04    0.27209E-06   -0.13350E-05  6400   0.296E-03    0.511E-03
DAV:   6    -0.360899330686E+04   -0.66223E-06   -0.44317E-06  5504   0.125E-03
 augmentation electrons   1811.81946139183     
 soft         electrons  0.000000000000000E+000
 total        electrons   1811.81946139183     
 augmentation electrons -6.567460577952824E-002
 soft         electrons  0.000000000000000E+000
 total        electrons -6.567460577952824E-002
 augmentation electrons   1984.08993532515     
 soft         electrons  0.000000000000000E+000
 total        electrons   1984.08993532515     
 augmentation electrons   1926.57277545315     
 soft         electrons  0.000000000000000E+000
 total        electrons   1926.57277545315     
 augmentation electrons   54.7387714448914     
 soft         electrons   1757.08063239058     
 total        electrons   1811.81940383547     
 augmentation electrons   31.8141984553812     
 soft         electrons   1757.08063239058     
 total        electrons   51.9343013476701     
 translations:           0           1           0
 112 F= -.36468856E+04 E0= -.36468856E+04  d E =-.449212E-03  mag=    52.0000
 trial-energy change:   -0.000449  1 .order   -0.000655   -0.000894   -0.000416
 step:   0.5014(harm=  0.5014)  dis= 0.00170  next Energy= -3646.886022 (dE=-0.836E-03)
 reached required accuracy - stopping structural energy minimisation
 writing wavefunctions
