 ----------------------------------------------------
    OOO  PPPP  EEEEE N   N M   M PPPP
   O   O P   P E     NN  N MM MM P   P
   O   O PPPP  EEEEE N N N M M M PPPP   -- VERSION
   O   O P     E     N  NN M   M P
    OOO  P     EEEEE N   N M   M P
 ----------------------------------------------------
 running  512 mpi-ranks, with    1 threads/rank
 distrk:  each k-point on  512 cores,    1 groups
 distr:  one band on    4 cores,  128 groups
 vasp.6.3.2 27Jun22 (build Nov 12 2024 19:13:04) complex                        
  
 POSCAR found type information on POSCAR MnBrN C H 
 POSCAR found :  5 types and     636 ions
 scaLAPACK will be used
 LDA part: xc-table for Pade appr. of Perdew
 POSCAR, INCAR and KPOINTS ok, starting setup
 FFT: planning ... GRIDC
 FFT: planning ... GRID_SOFT
 FFT: planning ... GRID
 WAVECAR not read
 entering main loop
       N       E                     dE             d eps       ncg     rms          rms(c)
DAV:   1     0.987833294050E+04    0.98783E+04   -0.80686E+05  5376   0.120E+03
DAV:   2    -0.260655466981E+04   -0.12485E+05   -0.12042E+05  6272   0.260E+02
DAV:   3    -0.385979373201E+04   -0.12532E+04   -0.12420E+04  6400   0.875E+01
DAV:   4    -0.389327690075E+04   -0.33483E+02   -0.33259E+02  6784   0.162E+01
DAV:   5    -0.389420258232E+04   -0.92568E+00   -0.92458E+00  6656   0.259E+00    0.148E+02
DAV:   6    -0.423383064779E+04   -0.33963E+03   -0.32328E+03  6528   0.431E+01    0.331E+02
DAV:   7    -0.375020033048E+04    0.48363E+03   -0.60786E+02  6400   0.304E+01    0.161E+02
DAV:   8    -0.368436044299E+04    0.65840E+02   -0.95588E+02  6144   0.471E+01    0.132E+02
DAV:   9    -0.376389968259E+04   -0.79539E+02   -0.14559E+03  7040   0.221E+01    0.110E+02
DAV:  10    -0.360636069155E+04    0.15754E+03   -0.81082E+01  6016   0.864E+00    0.891E+01
DAV:  11    -0.365340887657E+04   -0.47048E+02   -0.30198E+02  6400   0.909E+00    0.104E+02
DAV:  12    -0.361646339441E+04    0.36945E+02   -0.34788E+01  6272   0.761E+00    0.102E+02
DAV:  13    -0.360555455038E+04    0.10909E+02   -0.17109E+02  6272   0.409E+00    0.102E+02
DAV:  14    -0.359447133062E+04    0.11083E+02   -0.32172E+02  6528   0.474E+00    0.894E+01
DAV:  15    -0.357740024040E+04    0.17071E+02   -0.16848E+02  6144   0.468E+00    0.737E+01
DAV:  16    -0.358174143722E+04   -0.43412E+01   -0.24029E+02  6144   0.377E+00    0.711E+01
DAV:  17    -0.358013838739E+04    0.16030E+01   -0.21074E+02  5760   0.309E+00    0.641E+01
DAV:  18    -0.357910375199E+04    0.10346E+01   -0.95502E+01  5888   0.229E+00    0.516E+01
DAV:  19    -0.357918763982E+04   -0.83888E-01   -0.51097E+01  5888   0.173E+00    0.493E+01
DAV:  20    -0.357931871807E+04   -0.13108E+00   -0.51446E-01  5504   0.674E-01    0.498E+01
DAV:  21    -0.358009167389E+04   -0.77296E+00   -0.15868E+01  6272   0.130E+00    0.486E+01
DAV:  22    -0.358201818185E+04   -0.19265E+01   -0.10066E+02  5888   0.155E+00    0.505E+01
DAV:  23    -0.358436795397E+04   -0.23498E+01   -0.50886E+01  6144   0.194E+00    0.441E+01
DAV:  24    -0.358787050017E+04   -0.35025E+01   -0.61152E+00  6272   0.177E+00    0.406E+01
DAV:  25    -0.358917918281E+04   -0.13087E+01   -0.71499E+00  6400   0.157E+00    0.365E+01
DAV:  26    -0.359189582679E+04   -0.27166E+01   -0.11175E+00  6272   0.129E+00    0.345E+01
DAV:  27    -0.359364338185E+04   -0.17476E+01   -0.70107E+00  6400   0.256E+00    0.370E+01
DAV:  28    -0.359193132337E+04    0.17121E+01   -0.81108E+00  6144   0.183E+00    0.368E+01
DAV:  29    -0.358899986793E+04    0.29315E+01   -0.22339E+00  6144   0.144E+00    0.328E+01
DAV:  30    -0.358721679005E+04    0.17831E+01   -0.80336E+00  6656   0.102E+00    0.228E+01
DAV:  31    -0.358756787944E+04   -0.35109E+00   -0.32305E-01  5632   0.559E-01    0.269E+01
DAV:  32    -0.358716183232E+04    0.40605E+00   -0.21854E-01  5888   0.383E-01    0.221E+01
DAV:  33    -0.358802950072E+04   -0.86767E+00   -0.38391E+00  6400   0.621E-01    0.243E+01
DAV:  34    -0.358799510931E+04    0.34391E-01   -0.64949E-02  5632   0.298E-01    0.246E+01
DAV:  35    -0.358811013422E+04   -0.11502E+00   -0.31729E-01  6400   0.187E-01    0.232E+01
DAV:  36    -0.358867570771E+04   -0.56557E+00   -0.22670E+00  6912   0.663E-01    0.236E+01
DAV:  37    -0.358946008342E+04   -0.78438E+00   -0.12682E+00  6528   0.410E-01    0.241E+01
DAV:  38    -0.358936322483E+04    0.96859E-01   -0.84900E-01  6528   0.543E-01    0.241E+01
DAV:  39    -0.358909266202E+04    0.27056E+00   -0.38279E-01  6272   0.368E-01    0.232E+01
DAV:  40    -0.358856264451E+04    0.53002E+00   -0.97232E-01  6528   0.598E-01    0.216E+01
DAV:  41    -0.358895010264E+04   -0.38746E+00   -0.32961E-01  6400   0.575E-01    0.210E+01
DAV:  42    -0.358905368393E+04   -0.10358E+00   -0.13598E+00  6656   0.104E+00    0.210E+01
DAV:  43    -0.358895571380E+04    0.97970E-01   -0.89272E-01  6528   0.800E-01    0.212E+01
DAV:  44    -0.358879748730E+04    0.15823E+00   -0.16920E-01  6272   0.445E-01    0.214E+01
DAV:  45    -0.358876991131E+04    0.27576E-01   -0.37704E-02  6528   0.178E-01    0.214E+01
DAV:  46    -0.358888674155E+04   -0.11683E+00   -0.41324E-01  6912   0.767E-01    0.224E+01
DAV:  47    -0.358861534208E+04    0.27140E+00   -0.64952E-01  6912   0.928E-01    0.256E+01
DAV:  48    -0.358846479627E+04    0.15055E+00   -0.17517E-01  5504   0.420E-01    0.256E+01
DAV:  49    -0.358792947054E+04    0.53533E+00   -0.34214E-01  6528   0.244E-01    0.258E+01
DAV:  50    -0.358798503097E+04   -0.55560E-01   -0.82379E-02  5504   0.287E-01    0.253E+01
DAV:  51    -0.358786646487E+04    0.11857E+00   -0.32877E-01  6144   0.101E+00    0.259E+01
DAV:  52    -0.358751858200E+04    0.34788E+00   -0.18669E-01  6912   0.522E-01    0.264E+01
DAV:  53    -0.358747347480E+04    0.45107E-01   -0.10609E-01  5760   0.271E-01    0.259E+01
DAV:  54    -0.358745415792E+04    0.19317E-01   -0.15623E-02  5632   0.129E-01    0.258E+01
DAV:  55    -0.358747359320E+04   -0.19435E-01   -0.36488E-02  6400   0.228E-01    0.258E+01
DAV:  56    -0.357873049618E+04    0.87431E+01   -0.15466E+01  6144   0.438E+00    0.697E+01
DAV:  57    -0.357741115578E+04    0.13193E+01   -0.18145E+00  6016   0.124E+00    0.637E+01
DAV:  58    -0.357718947178E+04    0.22168E+00   -0.60607E-01  6144   0.406E-01    0.602E+01
DAV:  59    -0.357734958764E+04   -0.16012E+00   -0.37010E-02  6016   0.198E-01    0.602E+01
DAV:  60    -0.357727625647E+04    0.73331E-01   -0.17929E-02  6144   0.786E-02    0.602E+01
DAV:  61    -0.358799891314E+04   -0.10723E+02   -0.30416E+01  6400   0.597E+00    0.278E+01
DAV:  62    -0.358859636797E+04   -0.59745E+00   -0.78895E+00  5888   0.167E+00    0.251E+01
DAV:  63    -0.358840200644E+04    0.19436E+00   -0.11846E+00  6400   0.120E+00    0.260E+01
DAV:  64    -0.358697087419E+04    0.14311E+01   -0.36650E+00  6144   0.181E+00    0.272E+01
DAV:  65    -0.358579412829E+04    0.11767E+01   -0.52906E+00  6400   0.172E+00    0.260E+01
DAV:  66    -0.358672242645E+04   -0.92830E+00   -0.12050E+00  6400   0.113E+00    0.257E+01
DAV:  67    -0.358673423708E+04   -0.11811E-01   -0.22603E-01  6272   0.592E-01    0.247E+01
DAV:  68    -0.358824655633E+04   -0.15123E+01   -0.28020E+00  6400   0.929E-01    0.228E+01
DAV:  69    -0.358899189986E+04   -0.74534E+00   -0.33894E-01  6656   0.751E-01    0.227E+01
DAV:  70    -0.359045210092E+04   -0.14602E+01   -0.75829E-01  6656   0.103E+00    0.226E+01
DAV:  71    -0.359881500936E+04   -0.83629E+01   -0.44195E+01  6784   0.453E+00    0.453E+01
DAV:  72    -0.359544625753E+04    0.33688E+01   -0.45939E+00  6528   0.135E+00    0.364E+01
DAV:  73    -0.359485649652E+04    0.58976E+00   -0.22103E+00  6272   0.110E+00    0.305E+01
DAV:  74    -0.359468542541E+04    0.17107E+00   -0.14314E-01  6016   0.443E-01    0.277E+01
DAV:  75    -0.359515976816E+04   -0.47434E+00   -0.61078E-01  6656   0.287E-01    0.305E+01
DAV:  76    -0.359496534658E+04    0.19442E+00   -0.36510E+01  6784   0.367E+00    0.262E+01
DAV:  77    -0.359491386284E+04    0.51484E-01   -0.56665E+00  6272   0.170E+00    0.170E+01
DAV:  78    -0.359588434838E+04   -0.97049E+00   -0.99426E-01  6272   0.942E-01    0.141E+01
DAV:  79    -0.359549288909E+04    0.39146E+00   -0.33700E-01  6016   0.712E-01    0.132E+01
DAV:  80    -0.359579088809E+04   -0.29800E+00   -0.11556E+01  6656   0.110E+00    0.128E+01
DAV:  81    -0.359627205675E+04   -0.48117E+00   -0.54161E-01  6656   0.102E+00    0.132E+01
DAV:  82    -0.359641000850E+04   -0.13795E+00   -0.25898E-01  5888   0.464E-01    0.128E+01
DAV:  83    -0.359650053448E+04   -0.90526E-01   -0.65484E-02  6784   0.148E-01    0.126E+01
DAV:  84    -0.359665653679E+04   -0.15600E+00   -0.57160E-01  6528   0.184E-01    0.123E+01
DAV:  85    -0.359670016285E+04   -0.43626E-01   -0.17895E+00  6784   0.423E-01    0.121E+01
DAV:  86    -0.359667310282E+04    0.27060E-01   -0.24005E-01  6528   0.509E-01    0.121E+01
DAV:  87    -0.359673725274E+04   -0.64150E-01   -0.53193E-02  5760   0.233E-01    0.121E+01
DAV:  88    -0.359704483848E+04   -0.30759E+00   -0.35587E-01  6528   0.793E-01    0.119E+01
DAV:  89    -0.359819162916E+04   -0.11468E+01   -0.51392E+00  6784   0.189E+00    0.188E+01
DAV:  90    -0.359782473693E+04    0.36689E+00   -0.40250E-01  6016   0.937E-01    0.176E+01
DAV:  91    -0.359665499671E+04    0.11697E+01   -0.98683E+00  6528   0.210E+00    0.114E+01
DAV:  92    -0.359723278205E+04   -0.57779E+00   -0.54240E-01  6016   0.994E-01    0.998E+00
DAV:  93    -0.359789710543E+04   -0.66432E+00   -0.21326E+00  6784   0.125E+00    0.141E+01
DAV:  94    -0.359803645054E+04   -0.13935E+00   -0.24647E-01  5888   0.442E-01    0.144E+01
DAV:  95    -0.359801946041E+04    0.16990E-01   -0.32448E-02  6016   0.137E-01    0.144E+01
DAV:  96    -0.359790217514E+04    0.11729E+00   -0.54689E-01  6656   0.979E-01    0.146E+01
DAV:  97    -0.359807395175E+04   -0.17178E+00   -0.29042E-01  7040   0.550E-01    0.144E+01
DAV:  98    -0.359783146944E+04    0.24248E+00   -0.21599E+00  6912   0.972E-01    0.792E+00
DAV:  99    -0.359818410183E+04   -0.35263E+00   -0.68180E-01  6528   0.708E-01    0.737E+00
DAV: 100    -0.359832502930E+04   -0.14093E+00   -0.98623E-01  7168   0.693E-01    0.698E+00
DAV: 101    -0.359828890144E+04    0.36128E-01   -0.58550E-01  6400   0.951E-01    0.675E+00
DAV: 102    -0.359834785970E+04   -0.58958E-01   -0.67944E-01  6912   0.516E-01    0.631E+00
DAV: 103    -0.359827683037E+04    0.71029E-01   -0.65183E-01  6784   0.696E-01    0.609E+00
DAV: 104    -0.359769316358E+04    0.58367E+00   -0.57543E-01  7040   0.804E-01    0.703E+00
DAV: 105    -0.359794830116E+04   -0.25514E+00   -0.95920E-02  5632   0.313E-01    0.666E+00
DAV: 106    -0.359876643905E+04   -0.81814E+00   -0.95433E-01  6656   0.160E+00    0.605E+00
DAV: 107    -0.359865860064E+04    0.10784E+00   -0.18762E-01  6784   0.540E-01    0.588E+00
DAV: 108    -0.359873310840E+04   -0.74508E-01   -0.12075E-01  6784   0.375E-01    0.550E+00
DAV: 109    -0.359895971529E+04   -0.22661E+00   -0.37738E-01  6400   0.493E-01    0.482E+00
DAV: 110    -0.359906010134E+04   -0.10039E+00   -0.35643E-01  6912   0.398E-01    0.456E+00
DAV: 111    -0.359886889705E+04    0.19120E+00   -0.61227E-01  6144   0.984E-01    0.505E+00
DAV: 112    -0.359898894896E+04   -0.12005E+00   -0.38283E-01  6272   0.396E-01    0.459E+00
DAV: 113    -0.359904930564E+04   -0.60357E-01   -0.17651E-01  6528   0.381E-01    0.416E+00
DAV: 114    -0.359896908257E+04    0.80223E-01   -0.36063E-01  6656   0.433E-01    0.403E+00
DAV: 115    -0.359892168194E+04    0.47401E-01   -0.40281E-01  7168   0.382E-01    0.389E+00
DAV: 116    -0.359880269714E+04    0.11898E+00   -0.66391E-01  6784   0.621E-01    0.414E+00
DAV: 117    -0.359894591474E+04   -0.14322E+00   -0.70162E-02  5760   0.246E-01    0.397E+00
DAV: 118    -0.359901943818E+04   -0.73523E-01   -0.66445E-02  6528   0.262E-01    0.808E+00
DAV: 119    -0.359898430779E+04    0.35130E-01   -0.20061E-02  5632   0.141E-01    0.792E+00
DAV: 120    -0.359897751413E+04    0.67937E-02   -0.53302E-04  6784   0.209E-02    0.797E+00
DAV: 121    -0.359895152936E+04    0.25985E-01   -0.16684E-02  6528   0.210E-01    0.524E+00
DAV: 122    -0.359906747290E+04   -0.11594E+00   -0.45227E-01  6528   0.198E-01    0.130E+01
DAV: 123    -0.359902512596E+04    0.42347E-01   -0.30308E-02  5632   0.148E-01    0.138E+01
DAV: 124    -0.359901412860E+04    0.10997E-01   -0.51142E-03  6400   0.626E-02    0.143E+01
DAV: 125    -0.359899555478E+04    0.18574E-01   -0.13587E-03  5888   0.251E-02    0.142E+01
DAV: 126    -0.359898936986E+04    0.61849E-02   -0.24588E-02  6400   0.167E-01    0.140E+01
DAV: 127    -0.359900806756E+04   -0.18698E-01   -0.52990E-03  6272   0.540E-02    0.142E+01
DAV: 128    -0.359901224582E+04   -0.41783E-02   -0.94323E-04  7040   0.234E-02    0.144E+01
DAV: 129    -0.359900877626E+04    0.34696E-02   -0.12031E-04  5632   0.104E-02    0.144E+01
DAV: 130    -0.359898142490E+04    0.27351E-01   -0.22809E-03  6272   0.701E-02    0.135E+01
DAV: 131    -0.359893675640E+04    0.44668E-01   -0.16296E-02  6400   0.234E-01    0.104E+01
DAV: 132    -0.359892916603E+04    0.75904E-02   -0.18274E-01  6144   0.182E-01    0.518E+00
DAV: 133    -0.359899412215E+04   -0.64956E-01   -0.59124E-02  6272   0.202E-01    0.875E+00
DAV: 134    -0.359892247023E+04    0.71652E-01   -0.83612E-02  6656   0.189E-01    0.846E+00
DAV: 135    -0.359891444945E+04    0.80208E-02   -0.10263E-02  5760   0.617E-02    0.853E+00
DAV: 136    -0.359842731456E+04    0.48713E+00   -0.60483E+00  6528   0.144E+00    0.628E+00
DAV: 137    -0.359851436761E+04   -0.87053E-01   -0.17831E+00  6528   0.495E-01    0.152E+01
DAV: 138    -0.359842483150E+04    0.89536E-01   -0.59620E-02  5632   0.228E-01    0.152E+01
DAV: 139    -0.359840985064E+04    0.14981E-01   -0.20545E-03  6656   0.433E-02    0.153E+01
DAV: 140    -0.359839919964E+04    0.10651E-01   -0.13672E-03  6528   0.391E-02    0.152E+01
DAV: 141    -0.359851032148E+04   -0.11112E+00   -0.15942E-01  6656   0.454E-01    0.131E+01
DAV: 142    -0.359867032205E+04   -0.16000E+00   -0.32212E+00  6656   0.529E-01    0.336E+00
DAV: 143    -0.359887145781E+04   -0.20114E+00   -0.29422E-01  6528   0.449E-01    0.327E+00
DAV: 144    -0.359891604995E+04   -0.44592E-01   -0.11815E-01  6784   0.274E-01    0.366E+00
DAV: 145    -0.359891524063E+04    0.80932E-03   -0.11381E-01  7168   0.235E-01    0.400E+00
DAV: 146    -0.359889489624E+04    0.20344E-01   -0.10633E-01  6784   0.214E-01    0.404E+00
DAV: 147    -0.359885247931E+04    0.42417E-01   -0.73167E-02  6912   0.157E-01    0.436E+00
DAV: 148    -0.359886920622E+04   -0.16727E-01   -0.22235E-02  5760   0.113E-01    0.420E+00
DAV: 149    -0.359887924533E+04   -0.10039E-01   -0.15532E-02  7296   0.884E-02    0.410E+00
DAV: 150    -0.359887859656E+04    0.64878E-03   -0.64766E-02  6912   0.139E-01    0.526E+00
DAV: 151    -0.359885735846E+04    0.21238E-01   -0.81238E-01  6784   0.224E-01    0.137E+01
DAV: 152    -0.359876203107E+04    0.95327E-01   -0.53842E-02  5888   0.230E-01    0.143E+01
DAV: 153    -0.359878150532E+04   -0.19474E-01   -0.12985E-02  6400   0.119E-01    0.145E+01
DAV: 154    -0.359879690621E+04   -0.15401E-01   -0.83440E-03  6656   0.639E-02    0.144E+01
DAV: 155    -0.359884290484E+04   -0.45999E-01   -0.13001E-01  6784   0.159E-01    0.137E+01
DAV: 156    -0.359886812740E+04   -0.25223E-01   -0.15069E-01  6656   0.157E-01    0.121E+01
DAV: 157    -0.359901607415E+04   -0.14795E+00   -0.25814E-01  6784   0.268E-01    0.147E+01
DAV: 158    -0.359904416339E+04   -0.28089E-01   -0.11345E-01  6784   0.162E-01    0.150E+01
DAV: 159    -0.359903167277E+04    0.12491E-01   -0.59935E-03  5632   0.599E-02    0.150E+01
DAV: 160    -0.359903003740E+04    0.16354E-02   -0.10270E-04  6656   0.814E-03    0.150E+01
DAV: 161    -0.359905643118E+04   -0.26394E-01   -0.47737E-02  6528   0.909E-02    0.151E+01
DAV: 162    -0.359906748144E+04   -0.11050E-01   -0.17140E-02  6400   0.863E-02    0.151E+01
DAV: 163    -0.359908692655E+04   -0.19445E-01   -0.63382E-03  6656   0.697E-02    0.152E+01
DAV: 164    -0.359906820725E+04    0.18719E-01   -0.20946E-02  6656   0.567E-02    0.152E+01
DAV: 165    -0.359906466933E+04    0.35379E-02   -0.15261E-03  6144   0.181E-02    0.152E+01
DAV: 166    -0.359911464363E+04   -0.49974E-01   -0.57663E-02  6528   0.122E-01    0.152E+01
DAV: 167    -0.359911265762E+04    0.19860E-02   -0.52352E-03  5888   0.477E-02    0.153E+01
DAV: 168    -0.359911823271E+04   -0.55751E-02   -0.15206E-03  6784   0.259E-02    0.153E+01
DAV: 169    -0.359917633424E+04   -0.58102E-01   -0.32248E-02  6656   0.109E-01    0.154E+01
DAV: 170    -0.359916729664E+04    0.90376E-02   -0.17014E-03  5760   0.295E-02    0.153E+01
DAV: 171    -0.359919245042E+04   -0.25154E-01   -0.17359E-01  6528   0.188E-01    0.155E+01
DAV: 172    -0.359921344940E+04   -0.20999E-01   -0.10180E-02  5888   0.612E-02    0.156E+01
DAV: 173    -0.359920513556E+04    0.83138E-02   -0.25799E-03  6912   0.288E-02    0.155E+01
DAV: 174    -0.359917848149E+04    0.26654E-01   -0.31375E-03  6784   0.409E-02    0.155E+01
DAV: 175    -0.359906538100E+04    0.11310E+00   -0.80417E-02  6528   0.174E-01    0.153E+01
DAV: 176    -0.359900075588E+04    0.64625E-01   -0.51843E-01  6656   0.321E-01    0.157E+01
DAV: 177    -0.359901812162E+04   -0.17366E-01   -0.37316E-02  5888   0.136E-01    0.156E+01
DAV: 178    -0.359900571768E+04    0.12404E-01   -0.20462E-03  6400   0.342E-02    0.156E+01
DAV: 179    -0.359900212744E+04    0.35902E-02   -0.16174E-04  6144   0.102E-02    0.156E+01
DAV: 180    -0.359898097498E+04    0.21152E-01   -0.43657E-04  6528   0.250E-02    0.155E+01
DAV: 181    -0.359912677512E+04   -0.14580E+00   -0.62738E-02  6272   0.208E-01    0.157E+01
DAV: 182    -0.359910668740E+04    0.20088E-01   -0.42935E-03  5888   0.550E-02    0.157E+01
DAV: 183    -0.359911739583E+04   -0.10708E-01   -0.22908E-03  6912   0.265E-02    0.156E+01
DAV: 184    -0.359916000573E+04   -0.42610E-01   -0.18448E-02  6784   0.651E-02    0.156E+01
DAV: 185    -0.359919370261E+04   -0.33697E-01   -0.82821E-03  6784   0.444E-02    0.156E+01
DAV: 186    -0.359904070128E+04    0.15300E+00   -0.11304E-01  6656   0.206E-01    0.156E+01
DAV: 187    -0.359897604059E+04    0.64661E-01   -0.12723E-02  6528   0.121E-01    0.154E+01
DAV: 188    -0.359895187647E+04    0.24164E-01   -0.20803E-02  6272   0.991E-02    0.155E+01
DAV: 189    -0.359892739290E+04    0.24484E-01   -0.57596E-03  6784   0.782E-02    0.155E+01
DAV: 190    -0.359890323597E+04    0.24157E-01   -0.24782E-03  6784   0.503E-02    0.154E+01
DAV: 191    -0.359891896495E+04   -0.15729E-01   -0.12180E-01  6528   0.211E-01    0.156E+01
DAV: 192    -0.359892168797E+04   -0.27230E-02   -0.71302E-02  6528   0.173E-01    0.153E+01
DAV: 193    -0.359892301793E+04   -0.13300E-02   -0.12423E-02  6528   0.681E-02    0.153E+01
DAV: 194    -0.359890133207E+04    0.21686E-01   -0.83383E-03  6400   0.429E-02    0.153E+01
DAV: 195    -0.359883177875E+04    0.69553E-01   -0.88356E-03  6656   0.953E-02    0.152E+01
DAV: 196    -0.359854510848E+04    0.28667E+00   -0.15295E+01  6912   0.154E+00    0.535E+00
DAV: 197    -0.359882273714E+04   -0.27763E+00   -0.41351E-01  5760   0.421E-01    0.545E+00
DAV: 198    -0.359891456050E+04   -0.91823E-01   -0.29881E-02  6272   0.138E-01    0.508E+00
DAV: 199    -0.359901733491E+04   -0.10277E+00   -0.23180E-01  6144   0.496E-01    0.388E+00
DAV: 200    -0.359902160655E+04   -0.42716E-02   -0.82538E-02  6272   0.200E-01    0.369E+00
DAV: 201    -0.359882493023E+04    0.19668E+00   -0.63966E-01  6528   0.819E-01    0.457E+00
DAV: 202    -0.359896674639E+04   -0.14182E+00   -0.26322E-01  6400   0.390E-01    0.254E+00
DAV: 203    -0.359898673717E+04   -0.19991E-01   -0.49629E-02  6272   0.231E-01    0.196E+00
DAV: 204    -0.359898769864E+04   -0.96147E-03   -0.32013E-02  6272   0.125E-01    0.182E+00
DAV: 205    -0.359898635062E+04    0.13480E-02   -0.35901E-02  6656   0.126E-01    0.169E+00
DAV: 206    -0.359897878679E+04    0.75638E-02   -0.56389E-02  6528   0.173E-01    0.154E+00
DAV: 207    -0.359897912518E+04   -0.33839E-03   -0.79235E-02  6528   0.159E-01    0.140E+00
DAV: 208    -0.359897735788E+04    0.17673E-02   -0.61367E-02  7040   0.144E-01    0.131E+00
DAV: 209    -0.359897992439E+04   -0.25665E-02   -0.50222E-02  6528   0.949E-02    0.126E+00
DAV: 210    -0.359898300696E+04   -0.30826E-02   -0.38741E-02  6784   0.711E-02    0.120E+00
DAV: 211    -0.359898739723E+04   -0.43903E-02   -0.43445E-02  6912   0.698E-02    0.116E+00
DAV: 212    -0.359898942963E+04   -0.20324E-02   -0.15432E-02  6656   0.534E-02    0.112E+00
DAV: 213    -0.359899086476E+04   -0.14351E-02   -0.51903E-03  6400   0.313E-02    0.110E+00
DAV: 214    -0.359899131224E+04   -0.44748E-03   -0.71012E-04  6144   0.148E-02    0.110E+00
DAV: 215    -0.359898980496E+04    0.15073E-02   -0.40606E-03  6400   0.238E-02    0.110E+00
DAV: 216    -0.359898992909E+04   -0.12413E-03   -0.48370E-03  6400   0.488E-02    0.110E+00
DAV: 217    -0.359898176658E+04    0.81625E-02   -0.85759E-02  6528   0.866E-02    0.112E+00
DAV: 218    -0.359898077942E+04    0.98716E-03   -0.21462E-02  6656   0.382E-02    0.112E+00
DAV: 219    -0.359897913440E+04    0.16450E-02   -0.20379E-02  6528   0.414E-02    0.111E+00
DAV: 220    -0.359896838200E+04    0.10752E-01   -0.20162E-01  6400   0.104E-01    0.110E+00
DAV: 221    -0.359897134928E+04   -0.29673E-02   -0.94556E-03  5888   0.416E-02    0.109E+00
DAV: 222    -0.359897227203E+04   -0.92274E-03   -0.29971E-04  5632   0.158E-02    0.109E+00
DAV: 223    -0.359897267898E+04   -0.40695E-03   -0.52174E-04  6528   0.740E-03    0.109E+00
DAV: 224    -0.359897370424E+04   -0.10253E-02   -0.10990E-02  6400   0.240E-02    0.110E+00
DAV: 225    -0.359896739258E+04    0.63117E-02   -0.23267E-01  6528   0.115E-01    0.105E+00
DAV: 226    -0.359896433283E+04    0.30597E-02   -0.18991E-01  7040   0.125E-01    0.991E-01
DAV: 227    -0.359896905183E+04   -0.47190E-02   -0.80274E-03  5760   0.487E-02    0.967E-01
DAV: 228    -0.359896747974E+04    0.15721E-02   -0.83348E-02  6400   0.121E-01    0.943E-01
DAV: 229    -0.359896817833E+04   -0.69859E-03   -0.10704E-01  6912   0.766E-02    0.953E-01
DAV: 230    -0.359897076683E+04   -0.25885E-02   -0.14031E-02  6144   0.545E-02    0.932E-01
DAV: 231    -0.359897208270E+04   -0.13159E-02   -0.10868E-02  6912   0.470E-02    0.934E-01
DAV: 232    -0.359897263642E+04   -0.55372E-03   -0.39492E-03  6528   0.246E-02    0.920E-01
DAV: 233    -0.359897269148E+04   -0.55053E-04   -0.79553E-05  5632   0.694E-03    0.919E-01
DAV: 234    -0.359897272222E+04   -0.30742E-04   -0.43618E-05  6528   0.345E-03    0.919E-01
DAV: 235    -0.359897273344E+04   -0.11224E-04   -0.23555E-05  6784   0.340E-03    0.918E-01
DAV: 236    -0.359897204290E+04    0.69054E-03   -0.52804E-03  6400   0.467E-02    0.927E-01
DAV: 237    -0.359897215202E+04   -0.10912E-03   -0.93276E-03  6784   0.297E-02    0.918E-01
DAV: 238    -0.359897224542E+04   -0.93406E-04   -0.10505E-03  6272   0.129E-02    0.914E-01
DAV: 239    -0.359896997047E+04    0.22750E-02   -0.17683E-02  6528   0.384E-02    0.957E-01
DAV: 240    -0.359896825449E+04    0.17160E-02   -0.57223E-03  6400   0.418E-02    0.988E-01
DAV: 241    -0.359891057356E+04    0.57681E-01   -0.14646E+00  6400   0.642E-01    0.810E-01
DAV: 242    -0.359897219254E+04   -0.61619E-01   -0.36661E-02  5632   0.154E-01    0.741E-01
DAV: 243    -0.359897384351E+04   -0.16510E-02   -0.43461E-03  6528   0.457E-02    0.723E-01
DAV: 244    -0.359897374778E+04    0.95730E-04   -0.28469E-03  7040   0.154E-02    0.709E-01
DAV: 245    -0.359897049125E+04    0.32565E-02   -0.11566E-01  6528   0.885E-02    0.646E-01
DAV: 246    -0.359892185448E+04    0.48637E-01   -0.97366E-01  6400   0.533E-01    0.990E-01
DAV: 247    -0.359896104458E+04   -0.39190E-01   -0.36596E-02  5504   0.132E-01    0.963E-01
DAV: 248    -0.359896238397E+04   -0.13394E-02   -0.86628E-03  6400   0.534E-02    0.955E-01
DAV: 249    -0.359896291290E+04   -0.52893E-03   -0.26333E-02  6784   0.402E-02    0.978E-01
DAV: 250    -0.359896257714E+04    0.33576E-03   -0.79526E-03  6272   0.253E-02    0.101E+00
DAV: 251    -0.359896046240E+04    0.21147E-02   -0.28141E-02  6656   0.643E-02    0.100E+00
DAV: 252    -0.359895189977E+04    0.85626E-02   -0.22592E-02  6656   0.675E-02    0.108E+00
DAV: 253    -0.359895315948E+04   -0.12597E-02   -0.11451E-03  5632   0.283E-02    0.109E+00
DAV: 254    -0.359895341930E+04   -0.25982E-03   -0.12906E-04  5760   0.875E-03    0.109E+00
DAV: 255    -0.359895576192E+04   -0.23426E-02   -0.20648E-03  6784   0.261E-02    0.111E+00
DAV: 256    -0.359894945798E+04    0.63039E-02   -0.14753E-02  6272   0.725E-02    0.126E+00
DAV: 257    -0.359894891567E+04    0.54231E-03   -0.77337E-04  5632   0.234E-02    0.127E+00
DAV: 258    -0.359894979388E+04   -0.87821E-03   -0.58386E-04  6272   0.915E-03    0.126E+00
DAV: 259    -0.359895080325E+04   -0.10094E-02   -0.11580E-03  6656   0.173E-02    0.128E+00
DAV: 260    -0.359895127202E+04   -0.46877E-03   -0.18244E-04  6400   0.765E-03    0.128E+00
DAV: 261    -0.359893475667E+04    0.16515E-01   -0.37292E-02  6656   0.710E-02    0.136E+00
DAV: 262    -0.359895295526E+04   -0.18199E-01   -0.59764E-02  6656   0.101E-01    0.126E+00
DAV: 263    -0.359897804748E+04   -0.25092E-01   -0.43913E-01  6656   0.239E-01    0.110E+00
DAV: 264    -0.359899292343E+04   -0.14876E-01   -0.30909E-01  6912   0.192E-01    0.106E+00
DAV: 265    -0.359900065507E+04   -0.77316E-02   -0.14015E-01  6400   0.138E-01    0.118E+00
DAV: 266    -0.359898590823E+04    0.14747E-01   -0.33004E-01  6656   0.229E-01    0.137E+00
DAV: 267    -0.359899885872E+04   -0.12950E-01   -0.10051E-01  6528   0.207E-01    0.114E+00
DAV: 268    -0.359899491348E+04    0.39452E-02   -0.11595E-01  6400   0.169E-01    0.141E+00
DAV: 269    -0.359896475400E+04    0.30159E-01   -0.69881E-02  6912   0.117E-01    0.178E+00
DAV: 270    -0.359895398135E+04    0.10773E-01   -0.90663E-03  5888   0.653E-02    0.192E+00
DAV: 271    -0.359897241430E+04   -0.18433E-01   -0.79072E-02  6400   0.107E-01    0.175E+00
DAV: 272    -0.359897491684E+04   -0.25025E-02   -0.26040E-02  6528   0.571E-02    0.181E+00
DAV: 273    -0.359897248593E+04    0.24309E-02   -0.99208E-02  6656   0.922E-02    0.193E+00
DAV: 274    -0.359896836450E+04    0.41214E-02   -0.65632E-02  7040   0.703E-02    0.204E+00
DAV: 275    -0.359894534117E+04    0.23023E-01   -0.11234E-01  6784   0.107E-01    0.232E+00
DAV: 276    -0.359886259841E+04    0.82743E-01   -0.89798E-01  6528   0.382E-01    0.259E+00
DAV: 277    -0.359888946245E+04   -0.26864E-01   -0.32363E-02  5504   0.140E-01    0.254E+00
DAV: 278    -0.359890666694E+04   -0.17204E-01   -0.31275E-02  6528   0.684E-02    0.243E+00
DAV: 279    -0.359891056182E+04   -0.38949E-02   -0.48933E-03  6144   0.213E-02    0.242E+00
DAV: 280    -0.359891274830E+04   -0.21865E-02   -0.25133E-02  6656   0.368E-02    0.240E+00
DAV: 281    -0.359891503357E+04   -0.22853E-02   -0.30909E-02  6784   0.417E-02    0.241E+00
DAV: 282    -0.359891405333E+04    0.98024E-03   -0.72117E-03  6272   0.325E-02    0.242E+00
DAV: 283    -0.359891423471E+04   -0.18138E-03   -0.53155E-05  5632   0.599E-03    0.242E+00
DAV: 284    -0.359891433770E+04   -0.10299E-03   -0.28315E-05  6912   0.314E-03    0.242E+00
DAV: 285    -0.359891367579E+04    0.66191E-03   -0.17316E-04  6528   0.595E-03    0.242E+00
DAV: 286    -0.359891884624E+04   -0.51705E-02   -0.20371E-01  6272   0.151E-01    0.251E+00
DAV: 287    -0.359891758134E+04    0.12649E-02   -0.59433E-03  5888   0.616E-02    0.253E+00
DAV: 288    -0.359891292994E+04    0.46514E-02   -0.31743E-03  6528   0.227E-02    0.253E+00
DAV: 289    -0.359890443432E+04    0.84956E-02   -0.33213E-02  6400   0.594E-02    0.251E+00
DAV: 290    -0.359888016006E+04    0.24274E-01   -0.14654E-01  6400   0.144E-01    0.250E+00
DAV: 291    -0.359895421301E+04   -0.74053E-01   -0.22028E-01  6528   0.220E-01    0.183E+00
DAV: 292    -0.359892766904E+04    0.26544E-01   -0.97271E-02  6400   0.195E-01    0.208E+00
DAV: 293    -0.359892642979E+04    0.12392E-02   -0.63516E-02  6912   0.981E-02    0.210E+00
DAV: 294    -0.359893746387E+04   -0.11034E-01   -0.37935E-02  6272   0.748E-02    0.204E+00
DAV: 295    -0.359896769047E+04   -0.30227E-01   -0.42538E-02  6528   0.762E-02    0.182E+00
DAV: 296    -0.359897267100E+04   -0.49805E-02   -0.29616E-01  6528   0.176E-01    0.172E+00
DAV: 297    -0.359901115759E+04   -0.38487E-01   -0.15666E-02  5888   0.850E-02    0.145E+00
DAV: 298    -0.359902262617E+04   -0.11469E-01   -0.16313E-02  6400   0.418E-02    0.135E+00
DAV: 299    -0.359903912973E+04   -0.16504E-01   -0.32013E-02  6912   0.521E-02    0.117E+00
DAV: 300    -0.359904887940E+04   -0.97497E-02   -0.11765E-01  6528   0.978E-02    0.104E+00
DAV: 301    -0.359907990690E+04   -0.31027E-01   -0.39530E-01  6656   0.226E-01    0.306E-01
DAV: 302    -0.359909236773E+04   -0.12461E-01   -0.98459E-03  5632   0.834E-02    0.252E-01
DAV: 303    -0.359909398610E+04   -0.16184E-02   -0.11391E-02  6400   0.349E-02    0.235E-01
DAV: 304    -0.359909566393E+04   -0.16778E-02   -0.14977E-02  6528   0.374E-02    0.232E-01
DAV: 305    -0.359909545454E+04    0.20940E-03   -0.15922E-02  6528   0.426E-02    0.318E-01
DAV: 306    -0.359909590142E+04   -0.44688E-03   -0.27254E-02  6528   0.973E-02    0.302E-01
DAV: 307    -0.359909751360E+04   -0.16122E-02   -0.19444E-03  5632   0.311E-02    0.290E-01
DAV: 308    -0.359909720680E+04    0.30680E-03   -0.43906E-04  5888   0.114E-02    0.290E-01
DAV: 309    -0.359909631238E+04    0.89442E-03   -0.91054E-04  6400   0.108E-02    0.305E-01
DAV: 310    -0.359909904607E+04   -0.27337E-02   -0.20371E-02  6528   0.507E-02    0.283E-01
DAV: 311    -0.359910107900E+04   -0.20329E-02   -0.36655E-02  6528   0.662E-02    0.292E-01
DAV: 312    -0.359910151650E+04   -0.43750E-03   -0.73619E-03  6272   0.356E-02    0.338E-01
DAV: 313    -0.359910167617E+04   -0.15967E-03   -0.43422E-04  5760   0.148E-02    0.342E-01
DAV: 314    -0.359910150306E+04    0.17312E-03   -0.12744E-04  5760   0.717E-03    0.341E-01
DAV: 315    -0.359910168234E+04   -0.17928E-03   -0.10103E-03  6400   0.147E-02    0.343E-01
DAV: 316    -0.359910264810E+04   -0.96577E-03   -0.37296E-02  6656   0.644E-02    0.392E-01
DAV: 317    -0.359910259494E+04    0.53165E-04   -0.86877E-04  5632   0.301E-02    0.402E-01
DAV: 318    -0.359910329487E+04   -0.69993E-03   -0.26189E-03  6528   0.211E-02    0.398E-01
DAV: 319    -0.359910375334E+04   -0.45848E-03   -0.16927E-03  7168   0.119E-02    0.403E-01
DAV: 320    -0.359910374103E+04    0.12308E-04   -0.57545E-05  5632   0.884E-03    0.402E-01
DAV: 321    -0.359910238103E+04    0.13600E-02   -0.56057E-03  6400   0.369E-02    0.434E-01
DAV: 322    -0.359910255406E+04   -0.17303E-03   -0.56258E-04  5632   0.174E-02    0.434E-01
DAV: 323    -0.359910234466E+04    0.20940E-03   -0.15402E-02  6528   0.377E-02    0.375E-01
DAV: 324    -0.359910314762E+04   -0.80296E-03   -0.21497E-04  5632   0.141E-02    0.375E-01
DAV: 325    -0.359910318535E+04   -0.37735E-04   -0.17220E-05  6016   0.280E-03    0.377E-01
DAV: 326    -0.359910291261E+04    0.27274E-03   -0.19809E-03  6400   0.170E-02    0.363E-01
DAV: 327    -0.359910319862E+04   -0.28601E-03   -0.19792E-03  6272   0.168E-02    0.336E-01
DAV: 328    -0.359910468815E+04   -0.14895E-02   -0.19637E-03  6144   0.189E-02    0.299E-01
DAV: 329    -0.359910693403E+04   -0.22459E-02   -0.14742E-02  6528   0.370E-02    0.284E-01
DAV: 330    -0.359910930207E+04   -0.23680E-02   -0.34508E-02  6528   0.501E-02    0.285E-01
DAV: 331    -0.359911288672E+04   -0.35846E-02   -0.29211E-02  6400   0.491E-02    0.236E-01
DAV: 332    -0.359911370123E+04   -0.81451E-03   -0.10267E-03  5120   0.330E-02    0.232E-01
DAV: 333    -0.359911368327E+04    0.17962E-04   -0.23312E-05  5632   0.510E-03    0.232E-01
DAV: 334    -0.359911381972E+04   -0.13645E-03   -0.91969E-05  6528   0.296E-03    0.234E-01
DAV: 335    -0.359911454225E+04   -0.72253E-03   -0.86110E-04  6400   0.112E-02    0.222E-01
DAV: 336    -0.359911395015E+04    0.59209E-03   -0.29457E-02  6016   0.577E-02    0.320E-01
DAV: 337    -0.359911576177E+04   -0.18116E-02   -0.19657E-02  6528   0.374E-02    0.335E-01
DAV: 338    -0.359911870044E+04   -0.29387E-02   -0.22014E-02  6400   0.377E-02    0.322E-01
DAV: 339    -0.359911996620E+04   -0.12658E-02   -0.19114E-03  5504   0.235E-02    0.323E-01
DAV: 340    -0.359911969339E+04    0.27281E-03   -0.21706E-04  5376   0.140E-02    0.326E-01
DAV: 341    -0.359912361796E+04   -0.39246E-02   -0.61027E-02  5760   0.102E-01    0.223E-01
DAV: 342    -0.359912564448E+04   -0.20265E-02   -0.30199E-03  5120   0.465E-02    0.221E-01
DAV: 343    -0.359912654269E+04   -0.89821E-03   -0.20048E-03  5504   0.257E-02    0.208E-01
DAV: 344    -0.359912690597E+04   -0.36329E-03   -0.42042E-04  6144   0.929E-03    0.209E-01
DAV: 345    -0.359912542917E+04    0.14768E-02   -0.43246E-03  5888   0.285E-02    0.209E-01
DAV: 346    -0.359912056809E+04    0.48611E-02   -0.46537E-02  5632   0.688E-02    0.214E-01
DAV: 347    -0.359911887736E+04    0.16907E-02   -0.25317E-02  5888   0.493E-02    0.235E-01
DAV: 348    -0.359911405845E+04    0.48189E-02   -0.67674E-02  5888   0.711E-02    0.249E-01
DAV: 349    -0.359911395722E+04    0.10123E-03   -0.20419E-02  6016   0.450E-02    0.238E-01
DAV: 350    -0.359911186168E+04    0.20955E-02   -0.31117E-02  6400   0.452E-02    0.231E-01
DAV: 351    -0.359910806749E+04    0.37942E-02   -0.56907E-02  6272   0.687E-02    0.254E-01
DAV: 352    -0.359911024666E+04   -0.21792E-02   -0.23123E-03  5120   0.480E-02    0.254E-01
DAV: 353    -0.359911036981E+04   -0.12314E-03   -0.20676E-04  5888   0.117E-02    0.253E-01
DAV: 354    -0.359911030607E+04    0.63740E-04   -0.59453E-04  6016   0.154E-02    0.257E-01
DAV: 355    -0.359911024268E+04    0.63389E-04   -0.31274E-04  6528   0.722E-03    0.259E-01
DAV: 356    -0.359911086284E+04   -0.62016E-03   -0.41448E-03  5888   0.273E-02    0.252E-01
DAV: 357    -0.359911078583E+04    0.77011E-04   -0.60887E-04  5376   0.162E-02    0.265E-01
DAV: 358    -0.359911096632E+04   -0.18049E-03   -0.67221E-04  5504   0.145E-02    0.261E-01
DAV: 359    -0.359910973596E+04    0.12304E-02   -0.95016E-03  5760   0.395E-02    0.267E-01
DAV: 360    -0.359910997202E+04   -0.23606E-03   -0.38553E-03  6144   0.223E-02    0.251E-01
DAV: 361    -0.359910744636E+04    0.25257E-02   -0.15167E-02  5888   0.582E-02    0.307E-01
DAV: 362    -0.359910835673E+04   -0.91037E-03   -0.64519E-03  5760   0.371E-02    0.283E-01
DAV: 363    -0.359910925277E+04   -0.89604E-03   -0.23346E-02  5760   0.518E-02    0.261E-01
DAV: 364    -0.359911056844E+04   -0.13157E-02   -0.28345E-02  6144   0.475E-02    0.256E-01
DAV: 365    -0.359911263064E+04   -0.20622E-02   -0.11844E-02  5632   0.321E-02    0.258E-01
DAV: 366    -0.359910166283E+04    0.10968E-01   -0.48716E-01  6016   0.213E-01    0.286E-01
DAV: 367    -0.359912159409E+04   -0.19931E-01   -0.90139E-03  5120   0.868E-02    0.258E-01
DAV: 368    -0.359912338496E+04   -0.17909E-02   -0.58682E-04  5120   0.263E-02    0.257E-01
DAV: 369    -0.359912351347E+04   -0.12851E-03   -0.21676E-04  5504   0.101E-02    0.257E-01
DAV: 370    -0.359912339227E+04    0.12120E-03   -0.52329E-04  5504   0.108E-02    0.258E-01
DAV: 371    -0.359912233068E+04    0.10616E-02   -0.25333E-02  5760   0.700E-02    0.259E-01
DAV: 372    -0.359912429189E+04   -0.19612E-02   -0.44747E-03  5504   0.346E-02    0.266E-01
DAV: 373    -0.359912471303E+04   -0.42114E-03   -0.27467E-03  5632   0.302E-02    0.272E-01
DAV: 374    -0.359912501545E+04   -0.30242E-03   -0.14051E-04  5120   0.119E-02    0.266E-01
DAV: 375    -0.359912609712E+04   -0.10817E-02   -0.22127E-03  5632   0.204E-02    0.243E-01
DAV: 376    -0.359912363048E+04    0.24666E-02   -0.34403E-02  5632   0.855E-02    0.209E-01
DAV: 377    -0.359912622690E+04   -0.25964E-02   -0.28545E-02  5760   0.779E-02    0.205E-01
DAV: 378    -0.359912739999E+04   -0.11731E-02   -0.67663E-04  5120   0.239E-02    0.204E-01
DAV: 379    -0.359912739628E+04    0.37084E-05   -0.19161E-04  5504   0.827E-03    0.204E-01
DAV: 380    -0.359912639790E+04    0.99838E-03   -0.53259E-03  5760   0.221E-02    0.195E-01
DAV: 381    -0.359912230398E+04    0.40939E-02   -0.46375E-02  5760   0.675E-02    0.180E-01
DAV: 382    -0.359911936193E+04    0.29421E-02   -0.50268E-02  6400   0.621E-02    0.170E-01
DAV: 383    -0.359912174671E+04   -0.23848E-02   -0.19486E-03  5120   0.369E-02    0.159E-01
DAV: 384    -0.359912216560E+04   -0.41889E-03   -0.25452E-04  5248   0.137E-02    0.159E-01
DAV: 385    -0.359912213118E+04    0.34412E-04   -0.22221E-04  6272   0.639E-03    0.159E-01
DAV: 386    -0.359911924487E+04    0.28863E-02   -0.24585E-02  5504   0.656E-02    0.198E-01
DAV: 387    -0.359912070840E+04   -0.14635E-02   -0.12176E-03  5120   0.359E-02    0.189E-01
DAV: 388    -0.359912064730E+04    0.61098E-04   -0.15008E-04  5760   0.886E-03    0.189E-01
DAV: 389    -0.359912055732E+04    0.89985E-04   -0.26583E-05  5760   0.274E-03    0.191E-01
DAV: 390    -0.359912042639E+04    0.13093E-03   -0.18947E-04  6144   0.590E-03    0.192E-01
DAV: 391    -0.359911986931E+04    0.55708E-03   -0.47261E-03  5760   0.295E-02    0.179E-01
DAV: 392    -0.359911943757E+04    0.43175E-03   -0.26948E-03  5888   0.171E-02    0.176E-01
DAV: 393    -0.359911981653E+04   -0.37896E-03   -0.32186E-03  5504   0.337E-02    0.176E-01
DAV: 394    -0.359911838359E+04    0.14329E-02   -0.10540E-02  5504   0.387E-02    0.184E-01
DAV: 395    -0.359912022925E+04   -0.18457E-02   -0.47238E-04  5120   0.218E-02    0.184E-01
DAV: 396    -0.359911902914E+04    0.12001E-02   -0.17915E-02  5504   0.551E-02    0.181E-01
DAV: 397    -0.359911965564E+04   -0.62649E-03   -0.75093E-04  5120   0.201E-02    0.175E-01
DAV: 398    -0.359911893618E+04    0.71946E-03   -0.95848E-03  5888   0.362E-02    0.170E-01
DAV: 399    -0.359911875374E+04    0.18244E-03   -0.39649E-03  5632   0.243E-02    0.171E-01
DAV: 400    -0.359911821139E+04    0.54235E-03   -0.10604E-02  5888   0.411E-02    0.191E-01
DAV: 401    -0.359911846343E+04   -0.25204E-03   -0.31193E-03  6016   0.257E-02    0.193E-01
DAV: 402    -0.359911841114E+04    0.52293E-04   -0.75066E-04  5632   0.140E-02    0.195E-01
DAV: 403    -0.359911827644E+04    0.13470E-03   -0.41657E-05  5632   0.657E-03    0.195E-01
DAV: 404    -0.359911817626E+04    0.10018E-03   -0.12960E-05  5632   0.328E-03    0.195E-01
DAV: 405    -0.359911801773E+04    0.15853E-03   -0.31851E-04  6528   0.503E-03    0.196E-01
DAV: 406    -0.359911466614E+04    0.33516E-02   -0.97040E-02  5888   0.100E-01    0.245E-01
DAV: 407    -0.359911561503E+04   -0.94889E-03   -0.71019E-03  5760   0.470E-02    0.228E-01
DAV: 408    -0.359911516081E+04    0.45422E-03   -0.17564E-03  5376   0.204E-02    0.220E-01
DAV: 409    -0.359911449121E+04    0.66960E-03   -0.25432E-02  5632   0.604E-02    0.215E-01
DAV: 410    -0.359911516475E+04   -0.67354E-03   -0.22446E-02  6272   0.430E-02    0.206E-01
DAV: 411    -0.359911394609E+04    0.12187E-02   -0.10481E-01  5760   0.103E-01    0.259E-01
DAV: 412    -0.359911687077E+04   -0.29247E-02   -0.20228E-03  5120   0.424E-02    0.244E-01
DAV: 413    -0.359911701764E+04   -0.14687E-03   -0.92831E-05  6016   0.960E-03    0.241E-01
DAV: 414    -0.359911695983E+04    0.57810E-04   -0.14375E-04  6016   0.507E-03    0.244E-01
DAV: 415    -0.359911697210E+04   -0.12265E-04   -0.92353E-04  6144   0.123E-02    0.241E-01
DAV: 416    -0.359911715411E+04   -0.18201E-03   -0.12322E-02  6400   0.357E-02    0.249E-01
DAV: 417    -0.359911746683E+04   -0.31272E-03   -0.14605E-03  6272   0.176E-02    0.253E-01
DAV: 418    -0.359911730525E+04    0.16158E-03   -0.12749E-04  5632   0.102E-02    0.254E-01
DAV: 419    -0.359911723042E+04    0.74830E-04   -0.62763E-06  5504   0.129E-03    0.256E-01
DAV: 420    -0.359911747439E+04   -0.24397E-03   -0.18026E-04  6272   0.586E-03    0.250E-01
DAV: 421    -0.359911835047E+04   -0.87608E-03   -0.67664E-03  6272   0.333E-02    0.236E-01
DAV: 422    -0.359911859398E+04   -0.24351E-03   -0.25991E-02  6528   0.440E-02    0.225E-01
DAV: 423    -0.359911855271E+04    0.41268E-04   -0.13203E-02  6400   0.318E-02    0.241E-01
DAV: 424    -0.359911894384E+04   -0.39112E-03   -0.10516E-02  6400   0.268E-02    0.238E-01
DAV: 425    -0.359911938737E+04   -0.44354E-03   -0.38896E-02  6400   0.524E-02    0.247E-01
DAV: 426    -0.359911656410E+04    0.28233E-02   -0.23051E-01  5888   0.144E-01    0.261E-01
DAV: 427    -0.359912308262E+04   -0.65185E-02   -0.13854E-02  5120   0.921E-02    0.224E-01
DAV: 428    -0.359912343423E+04   -0.35161E-03   -0.55669E-04  5888   0.120E-02    0.221E-01
DAV: 429    -0.359912374233E+04   -0.30810E-03   -0.13855E-03  6016   0.136E-02    0.204E-01
DAV: 430    -0.359912431497E+04   -0.57264E-03   -0.90330E-03  6272   0.332E-02    0.180E-01
DAV: 431    -0.359912527637E+04   -0.96141E-03   -0.21384E-02  6400   0.452E-02    0.161E-01
DAV: 432    -0.359912609751E+04   -0.82114E-03   -0.32738E-03  6144   0.282E-02    0.144E-01
DAV: 433    -0.359912674108E+04   -0.64357E-03   -0.89077E-04  5888   0.131E-02    0.140E-01
DAV: 434    -0.359912698891E+04   -0.24782E-03   -0.93169E-04  6016   0.201E-02    0.142E-01
DAV: 435    -0.359912692912E+04    0.59788E-04   -0.19204E-04  6016   0.933E-03    0.141E-01
DAV: 436    -0.359911670452E+04    0.10225E-01   -0.21214E-01  6016   0.173E-01    0.310E-01
DAV: 437    -0.359912812309E+04   -0.11419E-01   -0.13545E-02  5120   0.920E-02    0.210E-01
DAV: 438    -0.359912788534E+04    0.23775E-03   -0.93777E-04  5504   0.217E-02    0.223E-01
DAV: 439    -0.359912847716E+04   -0.59182E-03   -0.13762E-02  5888   0.466E-02    0.203E-01
DAV: 440    -0.359912966874E+04   -0.11916E-02   -0.11189E-02  6528   0.313E-02    0.178E-01
DAV: 441    -0.359912827328E+04    0.13955E-02   -0.12846E-01  5888   0.117E-01    0.194E-01
DAV: 442    -0.359913387190E+04   -0.55986E-02   -0.77328E-03  5120   0.698E-02    0.167E-01
DAV: 443    -0.359913405389E+04   -0.18198E-03   -0.15655E-03  5632   0.240E-02    0.173E-01
DAV: 444    -0.359913476690E+04   -0.71301E-03   -0.20060E-03  5760   0.219E-02    0.153E-01
DAV: 445    -0.359913502246E+04   -0.25556E-03   -0.14466E-03  6528   0.162E-02    0.136E-01
DAV: 446    -0.359913430210E+04    0.72036E-03   -0.52218E-02  5632   0.840E-02    0.167E-01
DAV: 447    -0.359913724084E+04   -0.29387E-02   -0.59751E-03  5760   0.437E-02    0.135E-01
DAV: 448    -0.359913792076E+04   -0.67992E-03   -0.68055E-04  5760   0.149E-02    0.132E-01
DAV: 449    -0.359913714379E+04    0.77697E-03   -0.49106E-03  5760   0.303E-02    0.135E-01
DAV: 450    -0.359913778682E+04   -0.64303E-03   -0.14513E-02  6272   0.508E-02    0.137E-01
DAV: 451    -0.359913719845E+04    0.58837E-03   -0.88032E-02  5760   0.943E-02    0.171E-01
DAV: 452    -0.359914094442E+04   -0.37460E-02   -0.25231E-03  5120   0.508E-02    0.160E-01
DAV: 453    -0.359914037502E+04    0.56940E-03   -0.92330E-03  5632   0.414E-02    0.157E-01
DAV: 454    -0.359913972008E+04    0.65494E-03   -0.45375E-03  6016   0.318E-02    0.173E-01
DAV: 455    -0.359913875338E+04    0.96670E-03   -0.16857E-02  6400   0.503E-02    0.196E-01
DAV: 456    -0.359913585077E+04    0.29026E-02   -0.31563E-02  6144   0.697E-02    0.245E-01
DAV: 457    -0.359913783830E+04   -0.19875E-02   -0.13134E-03  5376   0.380E-02    0.239E-01
DAV: 458    -0.359913815159E+04   -0.31329E-03   -0.35259E-04  6016   0.143E-02    0.234E-01
DAV: 459    -0.359913785198E+04    0.29961E-03   -0.21651E-03  6400   0.155E-02    0.230E-01
DAV: 460    -0.359913765687E+04    0.19511E-03   -0.18508E-03  6400   0.130E-02    0.225E-01
DAV: 461    -0.359912610449E+04    0.11552E-01   -0.20857E-01  6272   0.149E-01    0.210E-01
DAV: 462    -0.359913316956E+04   -0.70651E-02   -0.14674E-02  5888   0.577E-02    0.184E-01
DAV: 463    -0.359913274044E+04    0.42911E-03   -0.16545E-02  6400   0.331E-02    0.176E-01
DAV: 464    -0.359913005823E+04    0.26822E-02   -0.45098E-02  6400   0.564E-02    0.182E-01
DAV: 465    -0.359912400065E+04    0.60576E-02   -0.11002E-01  6400   0.908E-02    0.218E-01
DAV: 466    -0.359912745064E+04   -0.34500E-02   -0.67422E-03  5120   0.657E-02    0.209E-01
DAV: 467    -0.359912690715E+04    0.54349E-03   -0.73010E-03  6272   0.266E-02    0.188E-01
DAV: 468    -0.359912637482E+04    0.53234E-03   -0.57295E-03  6656   0.208E-02    0.170E-01
DAV: 469    -0.359912655044E+04   -0.17562E-03   -0.10191E-03  5760   0.204E-02    0.170E-01
DAV: 470    -0.359912695969E+04   -0.40925E-03   -0.11637E-03  6528   0.127E-02    0.155E-01
DAV: 471    -0.359912744295E+04   -0.48326E-03   -0.62349E-03  6272   0.241E-02    0.150E-01
DAV: 472    -0.359912773973E+04   -0.29678E-03   -0.11890E-03  6144   0.168E-02    0.157E-01
DAV: 473    -0.359912781425E+04   -0.74520E-04   -0.68122E-04  6528   0.933E-03    0.163E-01
DAV: 474    -0.359912784724E+04   -0.32991E-04   -0.21841E-05  5632   0.517E-03    0.163E-01
DAV: 475    -0.359912785648E+04   -0.92395E-05   -0.73398E-06  5504   0.160E-03    0.163E-01
DAV: 476    -0.359912696478E+04    0.89170E-03   -0.24013E-02  6400   0.564E-02    0.126E-01
DAV: 477    -0.359912716748E+04   -0.20270E-03   -0.39505E-03  6272   0.261E-02    0.126E-01
DAV: 478    -0.359912708821E+04    0.79270E-04   -0.95973E-04  6016   0.128E-02    0.127E-01
DAV: 479    -0.359912707157E+04    0.16640E-04   -0.48079E-05  5632   0.791E-03    0.127E-01
DAV: 480    -0.359912703311E+04    0.38464E-04   -0.10766E-05  5760   0.133E-03    0.127E-01
DAV: 481    -0.359912698657E+04    0.46541E-04   -0.82006E-03  6400   0.399E-02    0.133E-01
DAV: 482    -0.359912745955E+04   -0.47298E-03   -0.85603E-03  6400   0.281E-02    0.137E-01
DAV: 483    -0.359912808113E+04   -0.62158E-03   -0.50827E-04  5632   0.232E-02    0.136E-01
DAV: 484    -0.359912815345E+04   -0.72321E-04   -0.96464E-05  6016   0.576E-03    0.134E-01
DAV: 485    -0.359912828460E+04   -0.13114E-03   -0.43061E-04  6528   0.863E-03    0.132E-01
DAV: 486    -0.359912618883E+04    0.20958E-02   -0.35280E-02  5760   0.740E-02    0.143E-01
DAV: 487    -0.359912656588E+04   -0.37704E-03   -0.16372E-03  5120   0.270E-02    0.136E-01
DAV: 488    -0.359912657429E+04   -0.84158E-05   -0.11888E-04  5632   0.117E-02    0.135E-01
DAV: 489    -0.359912655019E+04    0.24101E-04   -0.13144E-04  6144   0.474E-03    0.136E-01
DAV: 490    -0.359912651664E+04    0.33548E-04   -0.72359E-05  6272   0.320E-03    0.136E-01
DAV: 491    -0.359912061519E+04    0.59015E-02   -0.10314E-01  5760   0.111E-01    0.168E-01
DAV: 492    -0.359912285975E+04   -0.22446E-02   -0.53723E-03  5504   0.428E-02    0.151E-01
DAV: 493    -0.359912254723E+04    0.31252E-03   -0.29999E-03  5760   0.196E-02    0.146E-01
DAV: 494    -0.359912187279E+04    0.67444E-03   -0.46068E-03  6528   0.217E-02    0.149E-01
DAV: 495    -0.359912001698E+04    0.18558E-02   -0.15508E-02  5760   0.580E-02    0.220E-01
DAV: 496    -0.359911712971E+04    0.28873E-02   -0.10330E-01  6016   0.131E-01    0.195E-01
DAV: 497    -0.359912138104E+04   -0.42513E-02   -0.18923E-03  5120   0.445E-02    0.182E-01
DAV: 498    -0.359912143190E+04   -0.50858E-04   -0.15890E-04  5760   0.115E-02    0.189E-01
DAV: 499    -0.359912140583E+04    0.26073E-04   -0.30204E-05  6656   0.303E-03    0.192E-01
DAV: 500    -0.359912122052E+04    0.18531E-03   -0.14182E-03  6400   0.127E-02
 -----------------------------------------------------------------------------
|                                                                             |
|           W    W    AA    RRRRR   N    N  II  N    N   GGGG   !!!           |
|           W    W   A  A   R    R  NN   N  II  NN   N  G    G  !!!           |
|           W    W  A    A  R    R  N N  N  II  N N  N  G       !!!           |
|           W WW W  AAAAAA  RRRRR   N  N N  II  N  N N  G  GGG   !            |
|           WW  WW  A    A  R   R   N   NN  II  N   NN  G    G                |
|           W    W  A    A  R    R  N    N  II  N    N   GGGG   !!!           |
|                                                                             |
|     The electronic self-consistency was not achieved in the given           |
|     number of steps (NELM). The forces and other quantities evaluated       |
|     might not be reliable so examine the results carefully. If you find     |
|     spurious results, we suggest increasing NELM, if you were close to      |
|     convergence or switching to a different ALGO or adjusting the           |
|     density mixing parameters otherwise.                                    |
|                                                                             |
 -----------------------------------------------------------------------------

 augmentation electrons   1811.87698428987     
 soft         electrons  0.000000000000000E+000
 total        electrons   1811.87698428987     
 augmentation electrons -5.857471838644412E-002
 soft         electrons  0.000000000000000E+000
 total        electrons -5.857471838644412E-002
 augmentation electrons   1923.93918884376     
 soft         electrons  0.000000000000000E+000
 total        electrons   1923.93918884376     
 augmentation electrons   1866.42202897176     
 soft         electrons  0.000000000000000E+000
 total        electrons   1866.42202897176     
 augmentation electrons   54.7698938972049     
 soft         electrons   1757.10700313214     
 total        electrons   1811.87689702935     
 augmentation electrons   26.0712705585987     
 soft         electrons   1757.10700313214     
 total        electrons   41.9413995564150     
 translations:           0           1           0
   1 F= -.36370218E+04 E0= -.36370218E+04  d E =-.363702E+04  mag=    42.0000
 curvature:   0.00 expect dE= 0.000E+00 dE for cont linesearch  0.000E+00
 trial: gam= 0.00000 g(F)=  0.130E+00 g(S)=  0.000E+00 ort = 0.000E+00 (trialstep = 0.100E+01)
 search vector abs. value=  0.130E+00
 bond charge predicted
       N       E                     dE             d eps       ncg     rms          rms(c)
DAV:   1    -0.359915072684E+04   -0.29321E-01   -0.96979E+00  5376   0.232E+00    0.162E+00
DAV:   2    -0.359920088603E+04   -0.50159E-01   -0.54358E-01  5632   0.475E-01    0.838E-01
DAV:   3    -0.359920785737E+04   -0.69713E-02   -0.19618E-02  5632   0.126E-01    0.477E-01
DAV:   4    -0.359920768219E+04    0.17518E-03   -0.22212E-03  6912   0.290E-02    0.327E-01
DAV:   5    -0.359920788508E+04   -0.20290E-03   -0.86053E-03  6784   0.430E-02    0.145E-01
DAV:   6    -0.359920876049E+04   -0.87541E-03   -0.77814E-03  6784   0.315E-02    0.883E-02
DAV:   7    -0.359920933804E+04   -0.57755E-03   -0.23149E-03  6400   0.168E-02    0.844E-02
DAV:   8    -0.359920968369E+04   -0.34565E-03   -0.10537E-03  6272   0.927E-03    0.830E-02
DAV:   9    -0.359920948695E+04    0.19674E-03   -0.30826E-04  5888   0.112E-02    0.826E-02
DAV:  10    -0.359920921128E+04    0.27567E-03   -0.47554E-04  6400   0.740E-03    0.828E-02
DAV:  11    -0.359920892919E+04    0.28210E-03   -0.66665E-04  6272   0.656E-03    0.826E-02
DAV:  12    -0.359920020643E+04    0.87228E-02   -0.15110E-01  5888   0.115E-01    0.117E-01
DAV:  13    -0.359920542053E+04   -0.52141E-02   -0.30558E-03  5120   0.523E-02    0.890E-02
DAV:  14    -0.359920692344E+04   -0.15029E-02   -0.43557E-02  6400   0.701E-02    0.914E-02
DAV:  15    -0.359920815948E+04   -0.12360E-02   -0.20785E-02  6784   0.348E-02    0.110E-01
DAV:  16    -0.359920924460E+04   -0.10851E-02   -0.91809E-03  6272   0.229E-02    0.121E-01
DAV:  17    -0.359920978853E+04   -0.54393E-03   -0.99012E-04  6016   0.138E-02    0.122E-01
DAV:  18    -0.359920914124E+04    0.64729E-03   -0.70831E-03  6144   0.265E-02    0.133E-01
DAV:  19    -0.359920692627E+04    0.22150E-02   -0.49001E-02  6144   0.490E-02    0.177E-01
DAV:  20    -0.359920691895E+04    0.73179E-05   -0.36670E-03  5888   0.218E-02    0.168E-01
DAV:  21    -0.359920733467E+04   -0.41572E-03   -0.14177E-02  6016   0.448E-02    0.161E-01
DAV:  22    -0.359920786049E+04   -0.52582E-03   -0.11818E-02  6400   0.312E-02    0.162E-01
DAV:  23    -0.359920850565E+04   -0.64516E-03   -0.15844E-02  6400   0.340E-02    0.163E-01
DAV:  24    -0.359920948660E+04   -0.98095E-03   -0.50244E-04  5376   0.220E-02    0.160E-01
DAV:  25    -0.359920959705E+04   -0.11045E-03   -0.44831E-05  5760   0.668E-03    0.160E-01
DAV:  26    -0.359920851447E+04    0.10826E-02   -0.21566E-02  6016   0.481E-02    0.166E-01
DAV:  27    -0.359920756225E+04    0.95222E-03   -0.95759E-03  6784   0.252E-02    0.169E-01
DAV:  28    -0.359920796083E+04   -0.39858E-03   -0.12772E-02  5760   0.505E-02    0.158E-01
DAV:  29    -0.359920848531E+04   -0.52448E-03   -0.12283E-03  6272   0.128E-02    0.156E-01
DAV:  30    -0.359920725560E+04    0.12297E-02   -0.26632E-02  6016   0.602E-02    0.170E-01
DAV:  31    -0.359920770989E+04   -0.45429E-03   -0.34351E-02  6016   0.760E-02    0.155E-01
DAV:  32    -0.359920856508E+04   -0.85519E-03   -0.12035E-02  6656   0.287E-02    0.152E-01
DAV:  33    -0.359920937336E+04   -0.80828E-03   -0.38373E-04  5120   0.214E-02    0.150E-01
DAV:  34    -0.359920946711E+04   -0.93752E-04   -0.27442E-04  6400   0.533E-03    0.151E-01
DAV:  35    -0.359920942162E+04    0.45487E-04   -0.18683E-03  6528   0.107E-02    0.147E-01
DAV:  36    -0.359920845041E+04    0.97121E-03   -0.24822E-02  5888   0.400E-02    0.157E-01
DAV:  37    -0.359920732089E+04    0.11295E-02   -0.24882E-02  5888   0.447E-02    0.171E-01
DAV:  38    -0.359920789592E+04   -0.57502E-03   -0.31496E-03  5504   0.223E-02    0.168E-01
DAV:  39    -0.359920838699E+04   -0.49107E-03   -0.10206E-03  5504   0.124E-02    0.172E-01
DAV:  40    -0.359920831208E+04    0.74907E-04   -0.36237E-03  5760   0.212E-02    0.167E-01
DAV:  41    -0.359920869656E+04   -0.38447E-03   -0.60078E-03  6144   0.195E-02    0.167E-01
DAV:  42    -0.359920927075E+04   -0.57419E-03   -0.18684E-04  5248   0.110E-02    0.168E-01
DAV:  43    -0.359920936477E+04   -0.94026E-04   -0.60033E-05  6016   0.424E-03    0.168E-01
DAV:  44    -0.359920946569E+04   -0.10092E-03   -0.68462E-05  6272   0.290E-03    0.168E-01
DAV:  45    -0.359920942929E+04    0.36398E-04   -0.13007E-03  6144   0.110E-02    0.167E-01
DAV:  46    -0.359920928798E+04    0.14131E-03   -0.12239E-02  5888   0.315E-02    0.169E-01
DAV:  47    -0.359920902857E+04    0.25942E-03   -0.18413E-02  5760   0.388E-02    0.190E-01
DAV:  48    -0.359921017091E+04   -0.11423E-02   -0.97729E-03  5760   0.279E-02    0.185E-01
DAV:  49    -0.359921163218E+04   -0.14613E-02   -0.10292E-03  5248   0.251E-02    0.187E-01
DAV:  50    -0.359921135124E+04    0.28094E-03   -0.22132E-03  5632   0.179E-02    0.186E-01
DAV:  51    -0.359921144323E+04   -0.91990E-04   -0.59025E-03  5888   0.225E-02    0.185E-01
DAV:  52    -0.359921158551E+04   -0.14229E-03   -0.86902E-03  5760   0.302E-02    0.185E-01
DAV:  53    -0.359921275825E+04   -0.11727E-02   -0.31026E-03  5760   0.238E-02    0.197E-01
DAV:  54    -0.359921301295E+04   -0.25470E-03   -0.18668E-03  5760   0.165E-02    0.198E-01
DAV:  55    -0.359921344107E+04   -0.42812E-03   -0.53166E-05  5376   0.810E-03    0.199E-01
DAV:  56    -0.359921338194E+04    0.59127E-04   -0.44817E-04  5760   0.767E-03    0.197E-01
DAV:  57    -0.359921080695E+04    0.25750E-02   -0.73795E-02  5760   0.880E-02    0.210E-01
DAV:  58    -0.359921530558E+04   -0.44986E-02   -0.27513E-02  5504   0.825E-02    0.177E-01
DAV:  59    -0.359921529916E+04    0.64232E-05   -0.15987E-03  6016   0.159E-02    0.171E-01
DAV:  60    -0.359921505597E+04    0.24319E-03   -0.23543E-03  5888   0.133E-02    0.166E-01
DAV:  61    -0.359921506125E+04   -0.52779E-05   -0.52117E-04  5504   0.152E-02    0.162E-01
DAV:  62    -0.359920794986E+04    0.71114E-02   -0.21700E-01  5760   0.150E-01    0.212E-01
DAV:  63    -0.359921732695E+04   -0.93771E-02   -0.49565E-02  5504   0.115E-01    0.166E-01
DAV:  64    -0.359921741348E+04   -0.86533E-04   -0.34600E-03  5504   0.372E-02    0.176E-01
DAV:  65    -0.359921722684E+04    0.18665E-03   -0.80049E-03  5760   0.281E-02    0.181E-01
DAV:  66    -0.359921802743E+04   -0.80059E-03   -0.16755E-03  5632   0.134E-02    0.191E-01
DAV:  67    -0.359921679239E+04    0.12350E-02   -0.88877E-02  5760   0.924E-02    0.167E-01
DAV:  68    -0.359922192343E+04   -0.51310E-02   -0.64149E-03  5376   0.581E-02    0.153E-01
DAV:  69    -0.359922172354E+04    0.19989E-03   -0.44680E-03  5632   0.235E-02    0.160E-01
DAV:  70    -0.359921972468E+04    0.19989E-02   -0.31225E-02  5888   0.475E-02    0.223E-01
DAV:  71    -0.359921769856E+04    0.20261E-02   -0.30694E-02  6016   0.498E-02    0.314E-01
DAV:  72    -0.359921978192E+04   -0.20834E-02   -0.11465E-02  5760   0.347E-02    0.315E-01
DAV:  73    -0.359922174822E+04   -0.19663E-02   -0.17507E-02  5888   0.503E-02    0.259E-01
DAV:  74    -0.359922125312E+04    0.49509E-03   -0.18124E-03  5632   0.184E-02    0.266E-01
DAV:  75    -0.359921948776E+04    0.17654E-02   -0.11003E-02  5632   0.368E-02    0.308E-01
DAV:  76    -0.359921945116E+04    0.36606E-04   -0.45737E-03  6272   0.184E-02    0.331E-01
DAV:  77    -0.359920919257E+04    0.10259E-01   -0.21668E-01  5888   0.145E-01    0.500E-01
DAV:  78    -0.359921781711E+04   -0.86245E-02   -0.55172E-03  5120   0.723E-02    0.490E-01
DAV:  79    -0.359921861080E+04   -0.79369E-03   -0.10121E-03  5760   0.174E-02    0.478E-01
DAV:  80    -0.359921870057E+04   -0.89766E-04   -0.17417E-04  6016   0.349E-03    0.474E-01
DAV:  81    -0.359921881087E+04   -0.11030E-03   -0.69632E-04  6272   0.780E-03    0.470E-01
DAV:  82    -0.359921649714E+04    0.23137E-02   -0.12426E-02  5632   0.403E-02    0.493E-01
DAV:  83    -0.359921640387E+04    0.93264E-04   -0.29300E-02  6016   0.470E-02    0.474E-01
DAV:  84    -0.359921678392E+04   -0.38005E-03   -0.81661E-04  5120   0.211E-02    0.469E-01
DAV:  85    -0.359921727945E+04   -0.49553E-03   -0.42584E-03  6400   0.171E-02    0.449E-01
DAV:  86    -0.359921770896E+04   -0.42951E-03   -0.65625E-03  5888   0.181E-02    0.436E-01
DAV:  87    -0.359920364457E+04    0.14064E-01   -0.43661E-01  5760   0.214E-01    0.262E-01
DAV:  88    -0.359921939499E+04   -0.15750E-01   -0.19305E-02  5120   0.958E-02    0.211E-01
DAV:  89    -0.359922050467E+04   -0.11097E-02   -0.25818E-03  5376   0.328E-02    0.182E-01
DAV:  90    -0.359922019300E+04    0.31167E-03   -0.28520E-02  5504   0.595E-02    0.181E-01
DAV:  91    -0.359922050562E+04   -0.31261E-03   -0.27744E-02  5760   0.422E-02    0.200E-01
DAV:  92    -0.359922247941E+04   -0.19738E-02   -0.20340E-02  5632   0.629E-02    0.201E-01
DAV:  93    -0.359922097584E+04    0.15036E-02   -0.61631E-02  5632   0.869E-02    0.201E-01
DAV:  94    -0.359922154890E+04   -0.57305E-03   -0.59479E-02  6528   0.616E-02    0.207E-01
DAV:  95    -0.359922494327E+04   -0.33944E-02   -0.15955E-02  5760   0.390E-02    0.207E-01
DAV:  96    -0.359922693092E+04   -0.19877E-02   -0.81713E-04  5120   0.251E-02    0.207E-01
DAV:  97    -0.359907899128E+04    0.14794E+00   -0.34175E+00  5888   0.573E-01    0.476E-01
DAV:  98    -0.359920142165E+04   -0.12243E+00   -0.47780E-02  5120   0.199E-01    0.240E-01
DAV:  99    -0.359921145029E+04   -0.10029E-01   -0.67577E-03  5504   0.600E-02    0.146E-01
DAV: 100    -0.359921244826E+04   -0.99798E-03   -0.42400E-02  5888   0.699E-02    0.743E-02
DAV: 101    -0.359921290478E+04   -0.45652E-03   -0.11538E-02  6016   0.314E-02    0.843E-02
DAV: 102    -0.359920966831E+04    0.32365E-02   -0.41780E-02  5760   0.711E-02    0.147E-01
DAV: 103    -0.359921175171E+04   -0.20834E-02   -0.20533E-02  5760   0.621E-02    0.147E-01
DAV: 104    -0.359921216273E+04   -0.41103E-03   -0.27091E-02  5760   0.470E-02    0.152E-01
DAV: 105    -0.359921285260E+04   -0.68987E-03   -0.44954E-02  6144   0.503E-02    0.175E-01
DAV: 106    -0.359921402988E+04   -0.11773E-02   -0.27986E-02  6528   0.372E-02    0.203E-01
DAV: 107    -0.359921558144E+04   -0.15516E-02   -0.26606E-03  5376   0.239E-02    0.191E-01
DAV: 108    -0.359921621046E+04   -0.62902E-03   -0.10141E-03  5888   0.120E-02    0.186E-01
DAV: 109    -0.359921624558E+04   -0.35122E-04   -0.35295E-04  5888   0.103E-02    0.181E-01
DAV: 110    -0.359921602261E+04    0.22297E-03   -0.59908E-03  5760   0.282E-02    0.210E-01
DAV: 111    -0.359921557359E+04    0.44902E-03   -0.82923E-03  5760   0.268E-02    0.244E-01
DAV: 112    -0.359921474402E+04    0.82958E-03   -0.24123E-02  5888   0.560E-02    0.232E-01
DAV: 113    -0.359921433455E+04    0.40947E-03   -0.16679E-03  5376   0.171E-02    0.255E-01
DAV: 114    -0.359921512828E+04   -0.79373E-03   -0.19206E-02  5760   0.502E-02    0.224E-01
DAV: 115    -0.359921061191E+04    0.45164E-02   -0.18447E-01  5888   0.130E-01    0.219E-01
DAV: 116    -0.359921741898E+04   -0.68071E-02   -0.55975E-02  6016   0.663E-02    0.203E-01
DAV: 117    -0.359922301214E+04   -0.55932E-02   -0.39196E-03  5120   0.569E-02    0.142E-01
DAV: 118    -0.359922299864E+04    0.13498E-04   -0.35392E-03  6144   0.165E-02    0.168E-01
DAV: 119    -0.359922312390E+04   -0.12526E-03   -0.13660E-03  5888   0.103E-02    0.181E-01
DAV: 120    -0.359922319387E+04   -0.69977E-04   -0.65693E-05  5120   0.810E-03    0.180E-01
DAV: 121    -0.359922310983E+04    0.84046E-04   -0.51624E-05  6016   0.302E-03    0.181E-01
DAV: 122    -0.359922012301E+04    0.29868E-02   -0.74622E-02  5888   0.961E-02    0.264E-01
DAV: 123    -0.359922340727E+04   -0.32843E-02   -0.25485E-02  5632   0.801E-02    0.189E-01
DAV: 124    -0.359922387768E+04   -0.47041E-03   -0.23374E-04  5120   0.158E-02    0.188E-01
DAV: 125    -0.359922386235E+04    0.15326E-04   -0.13133E-04  5760   0.574E-03    0.192E-01
DAV: 126    -0.359922388238E+04   -0.20029E-04   -0.24267E-04  6016   0.542E-03    0.185E-01
DAV: 127    -0.359922202521E+04    0.18572E-02   -0.23349E-02  5760   0.479E-02    0.175E-01
DAV: 128    -0.359922268360E+04   -0.65839E-03   -0.70801E-03  5504   0.385E-02    0.204E-01
DAV: 129    -0.359922254787E+04    0.13573E-03   -0.11657E-02  5888   0.337E-02    0.235E-01
DAV: 130    -0.359922271895E+04   -0.17108E-03   -0.70708E-03  6016   0.220E-02    0.256E-01
DAV: 131    -0.359922337537E+04   -0.65642E-03   -0.13060E-03  5760   0.142E-02    0.257E-01
DAV: 132    -0.359922292617E+04    0.44920E-03   -0.18002E-02  5888   0.387E-02    0.289E-01
DAV: 133    -0.359922493004E+04   -0.20039E-02   -0.32728E-02  5888   0.701E-02    0.171E-01
DAV: 134    -0.359922541270E+04   -0.48266E-03   -0.27935E-02  5760   0.635E-02    0.186E-01
DAV: 135    -0.359922701349E+04   -0.16008E-02   -0.36710E-03  5760   0.289E-02    0.147E-01
DAV: 136    -0.359922743978E+04   -0.42629E-03   -0.33654E-03  6528   0.168E-02    0.132E-01
DAV: 137    -0.359922739078E+04    0.48998E-04   -0.19090E-02  5760   0.455E-02    0.170E-01
DAV: 138    -0.359922868883E+04   -0.12981E-02   -0.15189E-02  6144   0.334E-02    0.148E-01
DAV: 139    -0.359922958437E+04   -0.89553E-03   -0.13962E-03  5760   0.186E-02    0.152E-01
DAV: 140    -0.359922933755E+04    0.24682E-03   -0.59927E-03  5632   0.321E-02    0.143E-01
DAV: 141    -0.359922908380E+04    0.25375E-03   -0.35344E-04  5504   0.946E-03    0.151E-01
DAV: 142    -0.359922701029E+04    0.20735E-02   -0.99048E-03  5760   0.325E-02    0.200E-01
DAV: 143    -0.359922731225E+04   -0.30196E-03   -0.23826E-04  5120   0.162E-02    0.199E-01
DAV: 144    -0.359922733803E+04   -0.25780E-04   -0.11345E-04  6016   0.489E-03    0.200E-01
DAV: 145    -0.359922741385E+04   -0.75817E-04   -0.83719E-04  6144   0.940E-03    0.204E-01
DAV: 146    -0.359922708166E+04    0.33219E-03   -0.50197E-02  5888   0.712E-02    0.203E-01
DAV: 147    -0.359922487281E+04    0.22089E-02   -0.96296E-02  6016   0.876E-02    0.245E-01
DAV: 148    -0.359923095829E+04   -0.60855E-02   -0.24858E-03  5120   0.450E-02    0.240E-01
DAV: 149    -0.359923140963E+04   -0.45134E-03   -0.11324E-04  5120   0.119E-02    0.241E-01
DAV: 150    -0.359923162460E+04   -0.21497E-03   -0.14858E-04  6272   0.636E-03    0.233E-01
DAV: 151    -0.359923158841E+04    0.36186E-04   -0.27658E-04  6144   0.624E-03    0.239E-01
DAV: 152    -0.359923188758E+04   -0.29916E-03   -0.25275E-02  5888   0.581E-02    0.150E-01
DAV: 153    -0.359923072655E+04    0.11610E-02   -0.59455E-02  5888   0.971E-02    0.224E-01
DAV: 154    -0.359923268364E+04   -0.19571E-02   -0.54094E-04  5120   0.283E-02    0.221E-01
DAV: 155    -0.359923333100E+04   -0.64736E-03   -0.62359E-04  5888   0.126E-02    0.197E-01
DAV: 156    -0.359923366362E+04   -0.33262E-03   -0.23474E-03  6400   0.157E-02    0.194E-01
DAV: 157    -0.359923376344E+04   -0.99821E-04   -0.26568E-02  5888   0.621E-02    0.125E-01
DAV: 158    -0.359923352557E+04    0.23787E-03   -0.53289E-02  5632   0.919E-02    0.137E-01
DAV: 159    -0.359923501572E+04   -0.14901E-02   -0.16035E-02  6272   0.337E-02    0.147E-01
DAV: 160    -0.359923662316E+04   -0.16074E-02   -0.84063E-04  5120   0.214E-02    0.147E-01
DAV: 161    -0.359923679389E+04   -0.17073E-03   -0.17942E-03  5760   0.178E-02    0.150E-01
DAV: 162    -0.359923632695E+04    0.46695E-03   -0.74319E-03  5760   0.338E-02    0.161E-01
DAV: 163    -0.359923670502E+04   -0.37807E-03   -0.19505E-03  5760   0.196E-02    0.167E-01
DAV: 164    -0.359923652042E+04    0.18460E-03   -0.10906E-02  5888   0.331E-02    0.172E-01
DAV: 165    -0.359923777329E+04   -0.12529E-02   -0.16997E-03  5504   0.274E-02    0.172E-01
DAV: 166    -0.359923769755E+04    0.75737E-04   -0.99821E-04  6144   0.111E-02    0.170E-01
DAV: 167    -0.359923773984E+04   -0.42287E-04   -0.10188E-03  5888   0.124E-02    0.170E-01
DAV: 168    -0.359923759949E+04    0.14034E-03   -0.17432E-04  6016   0.571E-03    0.169E-01
DAV: 169    -0.359923748838E+04    0.11112E-03   -0.12043E-05  5632   0.297E-03    0.168E-01
DAV: 170    -0.359923746063E+04    0.27748E-04   -0.43429E-07  4224   0.738E-04    0.168E-01
DAV: 171    -0.359923746251E+04   -0.18841E-05   -0.48486E-05  5888   0.255E-03    0.167E-01
DAV: 172    -0.359923731115E+04    0.15137E-03   -0.16047E-03  5632   0.162E-02    0.170E-01
DAV: 173    -0.359923762099E+04   -0.30984E-03   -0.59622E-04  5504   0.129E-02    0.169E-01
DAV: 174    -0.359923752300E+04    0.97992E-04   -0.52654E-06  5376   0.241E-03    0.169E-01
DAV: 175    -0.359923750133E+04    0.21669E-04   -0.18670E-05  5376   0.198E-03    0.168E-01
DAV: 176    -0.359923752741E+04   -0.26079E-04   -0.19718E-05  5504   0.210E-03    0.168E-01
DAV: 177    -0.359923706280E+04    0.46461E-03   -0.59173E-03  5632   0.291E-02    0.176E-01
DAV: 178    -0.359923788666E+04   -0.82385E-03   -0.31007E-03  5632   0.290E-02    0.172E-01
DAV: 179    -0.359923770461E+04    0.18205E-03   -0.16027E-04  5504   0.723E-03    0.170E-01
DAV: 180    -0.359923768072E+04    0.23894E-04   -0.68622E-06  5376   0.255E-03    0.170E-01
DAV: 181    -0.359923764873E+04    0.31983E-04   -0.45542E-05  5760   0.329E-03    0.171E-01
DAV: 182    -0.359923674568E+04    0.90306E-03   -0.17828E-02  5632   0.509E-02    0.186E-01
DAV: 183    -0.359923679733E+04   -0.51657E-04   -0.66394E-04  5120   0.227E-02    0.180E-01
DAV: 184    -0.359923661489E+04    0.18245E-03   -0.47743E-04  6016   0.722E-03    0.182E-01
DAV: 185    -0.359923638864E+04    0.22625E-03   -0.41201E-04  6400   0.706E-03    0.185E-01
DAV: 186    -0.359923625215E+04    0.13649E-03   -0.24045E-04  6144   0.484E-03    0.186E-01
DAV: 187    -0.359922769763E+04    0.85545E-02   -0.16952E-01  5632   0.144E-01    0.205E-01
DAV: 188    -0.359923314908E+04   -0.54515E-02   -0.39997E-03  5120   0.642E-02    0.174E-01
DAV: 189    -0.359923308078E+04    0.68299E-04   -0.32533E-03  5504   0.285E-02    0.164E-01
DAV: 190    -0.359923349867E+04   -0.41789E-03   -0.78567E-04  5888   0.864E-03    0.158E-01
DAV: 191    -0.359923368035E+04   -0.18168E-03   -0.26091E-03  5632   0.165E-02    0.157E-01
DAV: 192    -0.359923420721E+04   -0.52686E-03   -0.29908E-04  5248   0.104E-02    0.158E-01
DAV: 193    -0.359923432222E+04   -0.11501E-03   -0.46496E-04  5632   0.713E-03    0.159E-01
DAV: 194    -0.359923450315E+04   -0.18093E-03   -0.35197E-04  5504   0.491E-03    0.159E-01
DAV: 195    -0.359923462086E+04   -0.11771E-03   -0.13478E-03  5504   0.114E-02    0.159E-01
DAV: 196    -0.359923469526E+04   -0.74404E-04   -0.51510E-03  5632   0.227E-02    0.158E-01
DAV: 197    -0.359923500211E+04   -0.30685E-03   -0.30027E-02  5760   0.659E-02    0.140E-01
DAV: 198    -0.359923517374E+04   -0.17162E-03   -0.24002E-02  5632   0.721E-02    0.131E-01
DAV: 199    -0.359923578624E+04   -0.61250E-03   -0.56847E-04  5120   0.243E-02    0.122E-01
DAV: 200    -0.359923580365E+04   -0.17415E-04   -0.23630E-03  5632   0.224E-02    0.122E-01
DAV: 201    -0.359923592897E+04   -0.12531E-03   -0.20289E-02  5632   0.470E-02    0.126E-01
DAV: 202    -0.359923074308E+04    0.51859E-02   -0.15436E-01  5760   0.121E-01    0.159E-01
DAV: 203    -0.359923927984E+04   -0.85368E-02   -0.11263E-02  5632   0.544E-02    0.152E-01
DAV: 204    -0.359924099431E+04   -0.17145E-02   -0.38337E-03  5504   0.232E-02    0.150E-01
DAV: 205    -0.359924171429E+04   -0.71998E-03   -0.34680E-04  5120   0.176E-02    0.146E-01
DAV: 206    -0.359924194070E+04   -0.22641E-03   -0.22175E-03  6400   0.153E-02    0.144E-01
DAV: 207    -0.359924228155E+04   -0.34085E-03   -0.83460E-03  6272   0.281E-02    0.139E-01
DAV: 208    -0.359924293263E+04   -0.65107E-03   -0.87902E-04  5632   0.141E-02    0.140E-01
DAV: 209    -0.359924299035E+04   -0.57721E-04   -0.16943E-03  5760   0.207E-02    0.144E-01
DAV: 210    -0.359924289738E+04    0.92970E-04   -0.23702E-05  5632   0.539E-03    0.142E-01
DAV: 211    -0.359924290396E+04   -0.65871E-05   -0.38361E-04  6144   0.775E-03    0.145E-01
DAV: 212    -0.359924242765E+04    0.47632E-03   -0.16635E-02  5760   0.470E-02    0.158E-01
DAV: 213    -0.359924295294E+04   -0.52530E-03   -0.21275E-02  5632   0.664E-02    0.158E-01
DAV: 214    -0.359924287078E+04    0.82164E-04   -0.12751E-02  5632   0.523E-02    0.150E-01
DAV: 215    -0.359924294444E+04   -0.73669E-04   -0.17549E-02  5888   0.406E-02    0.151E-01
DAV: 216    -0.359924418722E+04   -0.12428E-02   -0.14630E-03  5632   0.207E-02    0.157E-01
DAV: 217    -0.359924331606E+04    0.87116E-03   -0.30259E-02  5760   0.585E-02    0.162E-01
DAV: 218    -0.359924553920E+04   -0.22231E-02   -0.20651E-03  5248   0.387E-02    0.154E-01
DAV: 219    -0.359924553082E+04    0.83780E-05   -0.15238E-03  5760   0.158E-02    0.157E-01
DAV: 220    -0.359924536431E+04    0.16651E-03   -0.69643E-05  5120   0.824E-03    0.154E-01
DAV: 221    -0.359924537368E+04   -0.93732E-05   -0.17845E-05  5760   0.183E-03    0.153E-01
DAV: 222    -0.359924482213E+04    0.55156E-03   -0.13685E-02  5632   0.449E-02    0.166E-01
DAV: 223    -0.359924579118E+04   -0.96905E-03   -0.15051E-02  5632   0.582E-02    0.143E-01
DAV: 224    -0.359924567882E+04    0.11237E-03   -0.23979E-04  5120   0.160E-02    0.136E-01
DAV: 225    -0.359924563113E+04    0.47690E-04   -0.23343E-04  5632   0.743E-03    0.136E-01
DAV: 226    -0.359924568017E+04   -0.49046E-04   -0.36193E-05  5504   0.421E-03    0.137E-01
DAV: 227    -0.359924571254E+04   -0.32372E-04   -0.19607E-04  5888   0.531E-03    0.133E-01
DAV: 228    -0.359924572339E+04   -0.10848E-04   -0.23984E-05  5888   0.226E-03    0.132E-01
DAV: 229    -0.359924570840E+04    0.14992E-04   -0.16145E-04  6144   0.525E-03    0.135E-01
DAV: 230    -0.359924574080E+04   -0.32402E-04   -0.64582E-05  6144   0.333E-03    0.136E-01
DAV: 231    -0.359924574534E+04   -0.45358E-05   -0.17108E-04  6144   0.465E-03    0.137E-01
DAV: 232    -0.359924476700E+04    0.97834E-03   -0.25278E-02  5632   0.612E-02    0.155E-01
DAV: 233    -0.359924634605E+04   -0.15791E-02   -0.14482E-03  5760   0.260E-02    0.145E-01
DAV: 234    -0.359924663682E+04   -0.29077E-03   -0.70912E-05  5120   0.925E-03    0.145E-01
DAV: 235    -0.359924669608E+04   -0.59257E-04   -0.31176E-06  5632   0.241E-03    0.145E-01
DAV: 236    -0.359924667934E+04    0.16740E-04   -0.22489E-04  5760   0.560E-03    0.146E-01
DAV: 237    -0.359924688696E+04   -0.20762E-03   -0.43713E-03  5632   0.263E-02    0.134E-01
DAV: 238    -0.359924668768E+04    0.19927E-03   -0.74636E-05  5120   0.101E-02    0.131E-01
DAV: 239    -0.359924663279E+04    0.54898E-04   -0.11595E-03  5888   0.122E-02    0.133E-01
DAV: 240    -0.359924634422E+04    0.28857E-03   -0.34182E-03  5760   0.181E-02    0.138E-01
DAV: 241    -0.359924603323E+04    0.31098E-03   -0.15352E-03  5888   0.190E-02    0.147E-01
DAV: 242    -0.359924570879E+04    0.32444E-03   -0.16945E-02  5632   0.562E-02    0.124E-01
DAV: 243    -0.359924652483E+04   -0.81604E-03   -0.22759E-03  5760   0.230E-02    0.130E-01
DAV: 244    -0.359924692269E+04   -0.39786E-03   -0.32056E-04  5504   0.110E-02    0.132E-01
DAV: 245    -0.359924703587E+04   -0.11317E-03   -0.74216E-04  6272   0.827E-03    0.133E-01
DAV: 246    -0.359924722562E+04   -0.18975E-03   -0.39979E-05  5120   0.725E-03    0.134E-01
DAV: 247    -0.359924724406E+04   -0.18447E-04   -0.60177E-04  5760   0.102E-02    0.135E-01
DAV: 248    -0.359924715617E+04    0.87893E-04   -0.25629E-04  6016   0.565E-03    0.136E-01
DAV: 249    -0.359924704927E+04    0.10690E-03   -0.70501E-04  5888   0.747E-03    0.142E-01
DAV: 250    -0.359924693120E+04    0.11808E-03   -0.13008E-04  5760   0.512E-03    0.142E-01
DAV: 251    -0.359924687957E+04    0.51621E-04   -0.69249E-05  5504   0.543E-03    0.141E-01
DAV: 252    -0.359924660439E+04    0.27519E-03   -0.76411E-03  5760   0.316E-02    0.146E-01
DAV: 253    -0.359924659990E+04    0.44870E-05   -0.12902E-03  5504   0.234E-02    0.140E-01
DAV: 254    -0.359924666619E+04   -0.66288E-04   -0.61206E-05  5504   0.608E-03    0.141E-01
DAV: 255    -0.359924663416E+04    0.32025E-04   -0.10527E-05  5248   0.172E-03    0.141E-01
DAV: 256    -0.359924661446E+04    0.19699E-04   -0.83346E-05  6016   0.381E-03    0.141E-01
DAV: 257    -0.359924667661E+04   -0.62148E-04   -0.13153E-04  5760   0.544E-03    0.142E-01
DAV: 258    -0.359924667222E+04    0.43965E-05   -0.21771E-05  5504   0.315E-03    0.143E-01
DAV: 259    -0.359924664934E+04    0.22870E-04   -0.21530E-04  5888   0.686E-03    0.144E-01
DAV: 260    -0.359924661120E+04    0.38140E-04   -0.13948E-04  6272   0.479E-03    0.143E-01
DAV: 261    -0.359924657349E+04    0.37712E-04   -0.15265E-04  6528   0.474E-03    0.144E-01
DAV: 262    -0.359924664819E+04   -0.74700E-04   -0.57597E-03  5760   0.320E-02    0.140E-01
DAV: 263    -0.359924705752E+04   -0.40933E-03   -0.75387E-04  5888   0.133E-02    0.140E-01
DAV: 264    -0.359924725749E+04   -0.19997E-03   -0.37954E-04  5632   0.953E-03    0.139E-01
DAV: 265    -0.359924736395E+04   -0.10645E-03   -0.58528E-04  5888   0.873E-03    0.139E-01
DAV: 266    -0.359924742922E+04   -0.65273E-04   -0.60621E-05  5504   0.440E-03    0.139E-01
DAV: 267    -0.359924746180E+04   -0.32578E-04   -0.31189E-04  5632   0.989E-03    0.138E-01
DAV: 268    -0.359924741732E+04    0.44480E-04   -0.73016E-05  5632   0.387E-03    0.139E-01
DAV: 269    -0.359924741478E+04    0.25324E-05   -0.69732E-05  5888   0.284E-03    0.141E-01
DAV: 270    -0.359924741967E+04   -0.48840E-05   -0.40706E-06  4736   0.145E-03    0.141E-01
DAV: 271    -0.359924742830E+04   -0.86349E-05   -0.57727E-06  5376   0.968E-04    0.141E-01
DAV: 272    -0.359924707329E+04    0.35501E-03   -0.21566E-03  5760   0.194E-02    0.147E-01
DAV: 273    -0.359924695426E+04    0.11904E-03   -0.50116E-04  6144   0.947E-03    0.150E-01
DAV: 274    -0.359924680995E+04    0.14431E-03   -0.65293E-04  5760   0.952E-03    0.152E-01
DAV: 275    -0.359924704704E+04   -0.23710E-03   -0.24929E-04  5504   0.116E-02    0.150E-01
DAV: 276    -0.359924710162E+04   -0.54580E-04   -0.21073E-04  6144   0.637E-03    0.148E-01
DAV: 277    -0.359924403782E+04    0.30638E-02   -0.48055E-02  5888   0.114E-01    0.145E-01
DAV: 278    -0.359924688402E+04   -0.28462E-02   -0.25638E-03  5120   0.433E-02    0.134E-01
DAV: 279    -0.359924719609E+04   -0.31208E-03   -0.41499E-04  5504   0.122E-02    0.134E-01
DAV: 280    -0.359924719995E+04   -0.38537E-05   -0.25984E-03  5632   0.186E-02    0.133E-01
DAV: 281    -0.359924711504E+04    0.84905E-04   -0.29328E-03  5760   0.202E-02    0.131E-01
DAV: 282    -0.359924092004E+04    0.61950E-02   -0.19031E-01  5760   0.148E-01    0.145E-01
DAV: 283    -0.359924921680E+04   -0.82968E-02   -0.14975E-02  5504   0.913E-02    0.789E-02
DAV: 284    -0.359924980898E+04   -0.59218E-03   -0.74451E-04  5248   0.195E-02    0.716E-02
DAV: 285    -0.359924988696E+04   -0.77976E-04   -0.98306E-04  5760   0.134E-02    0.743E-02
DAV: 286    -0.359924995313E+04   -0.66172E-04   -0.59575E-04  6144   0.993E-03    0.747E-02
DAV: 287    -0.359925004083E+04   -0.87703E-04   -0.21183E-02  5888   0.446E-02    0.675E-02
DAV: 288    -0.359925060051E+04   -0.55968E-03   -0.21429E-03  5504   0.296E-02    0.595E-02
DAV: 289    -0.359925019448E+04    0.40603E-03   -0.40083E-03  5760   0.305E-02    0.719E-02
DAV: 290    -0.359925046810E+04   -0.27362E-03   -0.22256E-03  5632   0.190E-02    0.719E-02
DAV: 291    -0.359925044941E+04    0.18694E-04   -0.25213E-03  5632   0.197E-02    0.698E-02
DAV: 292    -0.359925064416E+04   -0.19475E-03   -0.17346E-03  5888   0.165E-02    0.660E-02
DAV: 293    -0.359925090230E+04   -0.25814E-03   -0.15342E-04  5120   0.111E-02    0.647E-02
DAV: 294    -0.359925095694E+04   -0.54647E-04   -0.22680E-05  5888   0.339E-03    0.643E-02
DAV: 295    -0.359925096159E+04   -0.46433E-05   -0.16866E-05  5760   0.331E-03    0.650E-02
DAV: 296    -0.359925096832E+04   -0.67355E-05   -0.71601E-05  5632   0.466E-03    0.645E-02
DAV: 297    -0.359925041316E+04    0.55516E-03   -0.16771E-02  5632   0.569E-02    0.587E-02
DAV: 298    -0.359925116136E+04   -0.74820E-03   -0.21567E-03  5888   0.250E-02    0.513E-02
DAV: 299    -0.359925126669E+04   -0.10532E-03   -0.34200E-03  5888   0.228E-02    0.483E-02
DAV: 300    -0.359925165525E+04   -0.38856E-03   -0.39780E-04  5248   0.164E-02    0.416E-02
DAV: 301    -0.359925142879E+04    0.22646E-03   -0.47259E-03  5504   0.326E-02    0.456E-02
DAV: 302    -0.359925174772E+04   -0.31894E-03   -0.15219E-03  6144   0.181E-02    0.420E-02
DAV: 303    -0.359925141856E+04    0.32916E-03   -0.70253E-03  5760   0.369E-02    0.468E-02
DAV: 304    -0.359925139805E+04    0.20509E-04   -0.76784E-03  6400   0.341E-02    0.505E-02
DAV: 305    -0.359925168270E+04   -0.28465E-03   -0.50829E-03  5888   0.305E-02    0.502E-02
DAV: 306    -0.359925241369E+04   -0.73098E-03   -0.11537E-03  5504   0.210E-02    0.417E-02
DAV: 307    -0.359925073213E+04    0.16816E-02   -0.20494E-02  5888   0.656E-02    0.114E-01
DAV: 308    -0.359925273149E+04   -0.19994E-02   -0.34768E-03  5504   0.512E-02    0.683E-02
DAV: 309    -0.359925284947E+04   -0.11798E-03   -0.20949E-04  5376   0.942E-03    0.591E-02
DAV: 310    -0.359925289952E+04   -0.50047E-04   -0.82660E-04  5760   0.148E-02    0.511E-02
DAV: 311    -0.359925299440E+04   -0.94886E-04   -0.16572E-04  5376   0.765E-03    0.487E-02
DAV: 312    -0.359925304934E+04   -0.54936E-04   -0.13142E-04  6400   0.579E-03    0.396E-02
DAV: 313    -0.359925302826E+04    0.21081E-04   -0.10235E-04  5888   0.553E-03    0.470E-02
DAV: 314    -0.359925305097E+04   -0.22716E-04   -0.12806E-04  6144   0.432E-03    0.437E-02
DAV: 315    -0.359925307426E+04   -0.23282E-04   -0.53330E-04  6016   0.748E-03    0.350E-02
DAV: 316    -0.359925308827E+04   -0.14009E-04   -0.94963E-04  6016   0.127E-02    0.277E-02
DAV: 317    -0.359925308653E+04    0.17313E-05   -0.60031E-04  5632   0.906E-03    0.301E-02
DAV: 318    -0.359925305008E+04    0.36459E-04   -0.41552E-04  5888   0.958E-03    0.445E-02
DAV: 319    -0.359925303318E+04    0.16898E-04   -0.14845E-03  5760   0.157E-02    0.519E-02
DAV: 320    -0.359925287254E+04    0.16064E-03   -0.59774E-03  5632   0.305E-02    0.589E-02
DAV: 321    -0.359925314518E+04   -0.27263E-03   -0.31866E-03  5760   0.191E-02    0.495E-02
[...]
DAV:   1    -0.359962848104E+04   -0.81224E-04   -0.20592E-02  5376   0.161E-01    0.461E-02
DAV:   2    -0.359962853622E+04   -0.55174E-04   -0.66881E-04  5632   0.219E-02    0.262E-02
DAV:   3    -0.359962853841E+04   -0.21918E-05   -0.23800E-05  5632   0.555E-03    0.162E-02
DAV:   4    -0.359962853679E+04    0.16221E-05   -0.58940E-06  6272   0.254E-03    0.836E-03
DAV:   5    -0.359962853694E+04   -0.15082E-06   -0.32188E-06  5760   0.153E-03
 augmentation electrons   1811.85674757004     
 soft         electrons  0.000000000000000E+000
 total        electrons   1811.85674757004     
 augmentation electrons -5.538921419383550E-002
 soft         electrons  0.000000000000000E+000
 total        electrons -5.538921419383550E-002
 augmentation electrons   1948.12745740697     
 soft         electrons  0.000000000000000E+000
 total        electrons   1948.12745740697     
 augmentation electrons   1890.61029753497     
 soft         electrons  0.000000000000000E+000
 total        electrons   1890.61029753497     
 augmentation electrons   54.7753144784129     
 soft         electrons   1757.08136694970     
 total        electrons   1811.85668142811     
 augmentation electrons   26.0713466199747     
 soft         electrons   1757.08136694970     
 total        electrons   41.9445847755722     
 translations:           0           1           0
 138 F= -.36375276E+04 E0= -.36375276E+04  d E =-.838024E-03  mag=    42.0000
 curvature:  -1.14 expect dE=-0.287E-02 dE for cont linesearch -0.614E-08
 trial: gam= 0.72070 g(F)=  0.251E-02 g(S)=  0.000E+00 ort =-0.974E-05 (trialstep = 0.347E+00)
 search vector abs. value=  0.117E-01
 bond charge predicted
       N       E                     dE             d eps       ncg     rms          rms(c)
DAV:   1    -0.359962889619E+04   -0.35940E-03   -0.82691E-02  5504   0.328E-01    0.940E-02
DAV:   2    -0.359962913538E+04   -0.23919E-03   -0.27687E-03  5632   0.445E-02    0.528E-02
DAV:   3    -0.359962914622E+04   -0.10837E-04   -0.95768E-05  5632   0.108E-02    0.324E-02
DAV:   4    -0.359962914067E+04    0.55462E-05   -0.16596E-05  6528   0.446E-03    0.174E-02
DAV:   5    -0.359962914060E+04    0.64319E-07   -0.75204E-06  6272   0.280E-03
 augmentation electrons   1811.85736617549     
 soft         electrons  0.000000000000000E+000
 total        electrons   1811.85736617549     
 augmentation electrons -5.542928854286580E-002
 soft         electrons  0.000000000000000E+000
 total        electrons -5.542928854286580E-002
 augmentation electrons   1947.75506452970     
 soft         electrons  0.000000000000000E+000
 total        electrons   1947.75506452970     
 augmentation electrons   1890.23790465770     
 soft         electrons  0.000000000000000E+000
 total        electrons   1890.23790465770     
 augmentation electrons   54.7759874890671     
 soft         electrons   1757.08131248062     
 total        electrons   1811.85729996969     
 augmentation electrons   26.0714402472351     
 soft         electrons   1757.08131248062     
 total        electrons   41.9445447078823     
 translations:           0           1           0
 139 F= -.36375283E+04 E0= -.36375283E+04  d E =-.630986E-03  mag=    42.0000
 trial-energy change:   -0.000631  1 .order   -0.000569   -0.000871   -0.000267
 step:   0.4344(harm=  0.5013)  dis= 0.00075  next Energy= -3637.528304 (dE=-0.665E-03)
 bond charge predicted
       N       E                     dE             d eps       ncg     rms          rms(c)
DAV:   1    -0.359962918472E+04   -0.44056E-04   -0.52565E-03  5760   0.825E-02    0.240E-02
DAV:   2    -0.359962919965E+04   -0.14926E-04   -0.17951E-04  5632   0.115E-02    0.136E-02
DAV:   3    -0.359962920024E+04   -0.58700E-06   -0.67551E-06  5504   0.286E-03
 augmentation electrons   1811.85755987841     
 soft         electrons  0.000000000000000E+000
 total        electrons   1811.85755987841     
 augmentation electrons -5.543125641986966E-002
 soft         electrons  0.000000000000000E+000
 total        electrons -5.543125641986966E-002
 augmentation electrons   1947.62762689827     
 soft         electrons  0.000000000000000E+000
 total        electrons   1947.62762689827     
 augmentation electrons   1890.11046702627     
 soft         electrons  0.000000000000000E+000
 total        electrons   1890.11046702627     
 augmentation electrons   54.7761980897031     
 soft         electrons   1757.08129556924     
 total        electrons   1811.85749365894     
 augmentation electrons   26.0714775254785     
 soft         electrons   1757.08129556924     
 total        electrons   41.9445427413437     
 translations:           0           1           0
 140 F= -.36375283E+04 E0= -.36375283E+04  d E =-.701239E-03  mag=    42.0000
 curvature:  -0.94 expect dE=-0.181E-02 dE for cont linesearch -0.149E-04
 ZBRENT: increasing intervall
 opt :   0.6083  next Energy= -3637.528355 (dE=-0.717E-03)
 bond charge predicted
       N       E                     dE             d eps       ncg     rms          rms(c)
DAV:   1    -0.359962915690E+04    0.42750E-04   -0.20365E-02  5504   0.164E-01    0.457E-02
DAV:   2    -0.359962921676E+04   -0.59857E-04   -0.67780E-04  5632   0.218E-02    0.258E-02
DAV:   3    -0.359962922043E+04   -0.36715E-05   -0.23818E-05  5760   0.523E-03    0.160E-02
DAV:   4    -0.359962921932E+04    0.11053E-05   -0.46003E-06  6528   0.219E-03    0.820E-03
DAV:   5    -0.359962921953E+04   -0.20294E-06   -0.30977E-06  4992   0.146E-03
 augmentation electrons   1811.85795314098     
 soft         electrons  0.000000000000000E+000
 total        electrons   1811.85795314098     
 augmentation electrons -5.542784226386493E-002
 soft         electrons  0.000000000000000E+000
 total        electrons -5.542784226386493E-002
 augmentation electrons   1947.33166916494     
 soft         electrons  0.000000000000000E+000
 total        electrons   1947.33166916494     
 augmentation electrons   1889.81450929294     
 soft         electrons  0.000000000000000E+000
 total        electrons   1889.81450929294     
 augmentation electrons   54.7766161789598     
 soft         electrons   1757.08127071811     
 total        electrons   1811.85788689707     
 augmentation electrons   26.0715407379761     
 soft         electrons   1757.08127071811     
 total        electrons   41.9445461577608     
 translations:           0           1           0
 141 F= -.36375284E+04 E0= -.36375284E+04  d E =-.732828E-03  mag=    42.0000
 curvature:  -0.97 expect dE=-0.325E-02 dE for cont linesearch -0.952E-05
 trial: gam= 1.39330 g(F)=  0.335E-02 g(S)=  0.000E+00 ort =-0.338E-03 (trialstep = 0.186E+00)
 search vector abs. value=  0.250E-01
 bond charge predicted
       N       E                     dE             d eps       ncg     rms          rms(c)
DAV:   1    -0.359962947859E+04   -0.25926E-03   -0.48301E-02  5504   0.254E-01    0.756E-02
DAV:   2    -0.359962963308E+04   -0.15449E-03   -0.17270E-03  5632   0.338E-02    0.416E-02
DAV:   3    -0.359962964072E+04   -0.76426E-05   -0.58912E-05  5760   0.805E-03    0.251E-02
DAV:   4    -0.359962963750E+04    0.32204E-05   -0.95373E-06  6144   0.328E-03    0.136E-02
DAV:   5    -0.359962963751E+04   -0.61700E-08   -0.56158E-06  6016   0.226E-03
 augmentation electrons   1811.85879777109     
 soft         electrons  0.000000000000000E+000
 total        electrons   1811.85879777109     
 augmentation electrons -5.537154699386196E-002
 soft         electrons  0.000000000000000E+000
 total        electrons -5.537154699386196E-002
 augmentation electrons   1946.61918839792     
 soft         electrons  0.000000000000000E+000
 total        electrons   1946.61918839792     
 augmentation electrons   1889.10202852592     
 soft         electrons  0.000000000000000E+000
 total        electrons   1889.10202852592     
 augmentation electrons   54.7774556774890     
 soft         electrons   1757.08127573405     
 total        electrons   1811.85873141154     
 augmentation electrons   26.0716772908875     
 soft         electrons   1757.08127573405     
 total        electrons   41.9446024409979     
 translations:           0           1           0
 142 F= -.36375289E+04 E0= -.36375289E+04  d E =-.501012E-03  mag=    42.0000
 trial-energy change:   -0.000501  1 .order   -0.000415   -0.000535   -0.000295
 step:   0.2458(harm=  0.4150)  dis= 0.00059  next Energy= -3637.528923 (dE=-0.551E-03)
 bond charge predicted
       N       E                     dE             d eps       ncg     rms          rms(c)
DAV:   1    -0.359962970451E+04   -0.67007E-04   -0.50393E-03  6016   0.817E-02    0.245E-02
DAV:   2    -0.359962972049E+04   -0.15984E-04   -0.18212E-04  5632   0.111E-02    0.136E-02
DAV:   3    -0.359962972126E+04   -0.77006E-06   -0.65671E-06  5504   0.269E-03
 augmentation electrons   1811.85907867492     
 soft         electrons  0.000000000000000E+000
 total        electrons   1811.85907867492     
 augmentation electrons -5.533924818912156E-002
 soft         electrons  0.000000000000000E+000
 total        electrons -5.533924818912156E-002
 augmentation electrons   1946.34855288564     
 soft         electrons  0.000000000000000E+000
 total        electrons   1946.34855288564     
 augmentation electrons   1888.83139301364     
 soft         electrons  0.000000000000000E+000
 total        electrons   1888.83139301364     
 augmentation electrons   54.7777372734217     
 soft         electrons   1757.08127500735     
 total        electrons   1811.85901228077     
 augmentation electrons   26.0717399349691     
 soft         electrons   1757.08127500735     
 total        electrons   41.9446347355031     
 translations:           0           1           0
 143 F= -.36375290E+04 E0= -.36375290E+04  d E =-.615488E-03  mag=    42.0000
 curvature:  -0.82 expect dE=-0.180E-02 dE for cont linesearch -0.513E-04
 ZBRENT: increasing intervall
 opt :   0.3653  next Energy= -3637.529097 (dE=-0.725E-03)
 bond charge predicted
       N       E                     dE             d eps       ncg     rms          rms(c)
DAV:   1    -0.359962975305E+04   -0.32564E-04   -0.19566E-02  5504   0.163E-01    0.471E-02
DAV:   2    -0.359962981696E+04   -0.63907E-04   -0.69942E-04  5632   0.213E-02    0.261E-02
DAV:   3    -0.359962982106E+04   -0.41003E-05   -0.24424E-05  5760   0.503E-03    0.159E-02
DAV:   4    -0.359962982006E+04    0.10034E-05   -0.41703E-06  6272   0.203E-03    0.840E-03
DAV:   5    -0.359962982026E+04   -0.20085E-06   -0.33785E-06  4992   0.148E-03
 augmentation electrons   1811.85965820790     
 soft         electrons  0.000000000000000E+000
 total        electrons   1811.85965820790     
 augmentation electrons -5.531519075624716E-002
 soft         electrons  0.000000000000000E+000
 total        electrons -5.531519075624716E-002
 augmentation electrons   1945.75440125674     
 soft         electrons  0.000000000000000E+000
 total        electrons   1945.75440125674     
 augmentation electrons   1888.23724138474     
 soft         electrons  0.000000000000000E+000
 total        electrons   1888.23724138474     
 augmentation electrons   54.7783074023318     
 soft         electrons   1757.08128434594     
 total        electrons   1811.85959174827     
 augmentation electrons   26.0718119564566     
 soft         electrons   1757.08128434594     
 total        electrons   41.9446587836795     
 translations:           0           1           0
 144 F= -.36375291E+04 E0= -.36375291E+04  d E =-.764080E-03  mag=    42.0000
 curvature:  -1.75 expect dE=-0.435E-02 dE for cont linesearch -0.170E-04
 trial: gam= 0.29388 g(F)=  0.249E-02 g(S)=  0.000E+00 ort = 0.493E-03 (trialstep = 0.222E+00)
 search vector abs. value=  0.494E-02
 bond charge predicted
       N       E                     dE             d eps       ncg     rms          rms(c)
DAV:   1    -0.359963020651E+04   -0.38645E-03   -0.17176E-02  5504   0.147E-01    0.440E-02
DAV:   2    -0.359963026323E+04   -0.56725E-04   -0.66508E-04  5888   0.217E-02    0.254E-02
DAV:   3    -0.359963026312E+04    0.11585E-06   -0.25092E-05  5760   0.505E-03    0.154E-02
DAV:   4    -0.359963026163E+04    0.14879E-05   -0.56815E-06  6144   0.238E-03    0.816E-03
DAV:   5    -0.359963026172E+04   -0.84459E-07   -0.29818E-06  5504   0.145E-03
 augmentation electrons   1811.86012588725     
 soft         electrons  0.000000000000000E+000
 total        electrons   1811.86012588725     
 augmentation electrons -5.530707368409065E-002
 soft         electrons  0.000000000000000E+000
 total        electrons -5.530707368409065E-002
 augmentation electrons   1945.37163839655     
 soft         electrons  0.000000000000000E+000
 total        electrons   1945.37163839655     
 augmentation electrons   1887.85447852455     
 soft         electrons  0.000000000000000E+000
 total        electrons   1887.85447852455     
 augmentation electrons   54.7786993809214     
 soft         electrons   1757.08135991466     
 total        electrons   1811.86005929558     
 augmentation electrons   26.0718423502938     
 soft         electrons   1757.08135991466     
 total        electrons   41.9446668794572     
 translations:           0           1           0
 145 F= -.36375296E+04 E0= -.36375296E+04  d E =-.455443E-03  mag=    42.0000
 trial-energy change:   -0.000455  1 .order   -0.000418   -0.000584   -0.000252
 step:   0.3088(harm=  0.3906)  dis= 0.00043  next Energy= -3637.529643 (dE=-0.507E-03)
 bond charge predicted
       N       E                     dE             d eps       ncg     rms          rms(c)
DAV:   1    -0.359963033731E+04   -0.75675E-04   -0.26436E-03  6016   0.575E-02    0.174E-02
DAV:   2    -0.359963034617E+04   -0.88628E-05   -0.10368E-04  6144   0.859E-03    0.101E-02
DAV:   3    -0.359963034620E+04   -0.31578E-07   -0.42412E-06  5504   0.205E-03
 augmentation electrons   1811.86031403268     
 soft         electrons  0.000000000000000E+000
 total        electrons   1811.86031403268     
 augmentation electrons -5.531363749830370E-002
 soft         electrons  0.000000000000000E+000
 total        electrons -5.531363749830370E-002
 augmentation electrons   1945.21327769843     
 soft         electrons  0.000000000000000E+000
 total        electrons   1945.21327769843     
 augmentation electrons   1887.69611782643     
 soft         electrons  0.000000000000000E+000
 total        electrons   1887.69611782643     
 augmentation electrons   54.7788520528510     
 soft         electrons   1757.08139533689     
 total        electrons   1811.86024738974     
 augmentation electrons   26.0718422733854     
 soft         electrons   1757.08139533689     
 total        electrons   41.9446603072020     
 translations:           0           1           0
 146 F= -.36375297E+04 E0= -.36375297E+04  d E =-.548361E-03  mag=    42.0000
 curvature:  -0.28 expect dE=-0.269E-03 dE for cont linesearch -0.201E-04
 ZBRENT: increasing intervall
 opt :   0.4825  next Energy= -3637.529693 (dE=-0.558E-03)
 bond charge predicted
       N       E                     dE             d eps       ncg     rms          rms(c)
DAV:   1    -0.359963033283E+04    0.13337E-04   -0.10326E-02  5504   0.114E-01    0.336E-02
DAV:   2    -0.359963036767E+04   -0.34835E-04   -0.39486E-04  6016   0.165E-02    0.194E-02
DAV:   3    -0.359963036818E+04   -0.51271E-06   -0.14893E-05  5760   0.382E-03    0.119E-02
DAV:   4    -0.359963036750E+04    0.67781E-06   -0.35144E-06  6528   0.180E-03
 augmentation electrons   1811.86067159923     
 soft         electrons  0.000000000000000E+000
 total        electrons   1811.86067159923     
 augmentation electrons -5.532488582605002E-002
 soft         electrons  0.000000000000000E+000
 total        electrons -5.532488582605002E-002
 augmentation electrons   1944.88520344454     
 soft         electrons  0.000000000000000E+000
 total        electrons   1944.88520344454     
 augmentation electrons   1887.36804357254     
 soft         electrons  0.000000000000000E+000
 total        electrons   1887.36804357254     
 augmentation electrons   54.7791471311403     
 soft         electrons   1757.08145772342     
 total        electrons   1811.86060485456     
 augmentation electrons   26.0718489663367     
 soft         electrons   1757.08145772342     
 total        electrons   41.9446490417928     
 translations:           0           1           0
 147 F= -.36375297E+04 E0= -.36375297E+04  d E =-.579698E-03  mag=    42.0000
 curvature:  -0.13 expect dE=-0.289E-03 dE for cont linesearch -0.753E-05
 ZBRENT: bracketing found
 ZBRENT: interpolating
 opt :   0.3999  next Energy= -3637.529738 (dE=-0.602E-03)
 bond charge predicted
       N       E                     dE             d eps       ncg     rms          rms(c)
DAV:   1    -0.359963037436E+04   -0.61769E-05   -0.23967E-03  5504   0.545E-02    0.167E-02
DAV:   2    -0.359963038235E+04   -0.79892E-05   -0.94818E-05  5632   0.818E-03    0.961E-03
DAV:   3    -0.359963038238E+04   -0.36438E-07   -0.37391E-06  5376   0.192E-03
 augmentation electrons   1811.86049102252     
 soft         electrons  0.000000000000000E+000
 total        electrons   1811.86049102252     
 augmentation electrons -5.532427770153711E-002
 soft         electrons  0.000000000000000E+000
 total        electrons -5.532427770153711E-002
 augmentation electrons   1945.04278751818     
 soft         electrons  0.000000000000000E+000
 total        electrons   1945.04278751818     
 augmentation electrons   1887.52562764618     
 soft         electrons  0.000000000000000E+000
 total        electrons   1887.52562764618     
 augmentation electrons   54.7789919431969     
 soft         electrons   1757.08143238279     
 total        electrons   1811.86042432598     
 augmentation electrons   26.0718467822120     
 soft         electrons   1757.08143238279     
 total        electrons   41.9446496580719     
 translations:           0           1           0
 148 F= -.36375297E+04 E0= -.36375297E+04  d E =-.583917E-03  mag=    42.0000
 curvature:  -0.38 expect dE=-0.561E-03 dE for cont linesearch -0.576E-07
 trial: gam= 0.68893 g(F)=  0.148E-02 g(S)=  0.000E+00 ort =-0.274E-04 (trialstep = 0.258E+00)
 search vector abs. value=  0.379E-02
 bond charge predicted
       N       E                     dE             d eps       ncg     rms          rms(c)
DAV:   1    -0.359963052892E+04   -0.14657E-03   -0.15864E-02  5888   0.153E-01    0.502E-02
DAV:   2    -0.359963060690E+04   -0.77979E-04   -0.82703E-04  5632   0.222E-02    0.262E-02
DAV:   3    -0.359963061076E+04   -0.38592E-05   -0.30983E-05  5632   0.558E-03    0.147E-02
DAV:   4    -0.359963060986E+04    0.89973E-06   -0.40891E-06  6528   0.199E-03
 augmentation electrons   1811.86056654477     
 soft         electrons  0.000000000000000E+000
 total        electrons   1811.86056654477     
 augmentation electrons -5.529970569585413E-002
 soft         electrons  0.000000000000000E+000
 total        electrons -5.529970569585413E-002
 augmentation electrons   1944.56501915711     
 soft         electrons  0.000000000000000E+000
 total        electrons   1944.56501915711     
 augmentation electrons   1887.04785928511     
 soft         electrons  0.000000000000000E+000
 total        electrons   1887.04785928511     
 augmentation electrons   54.7788999724449     
 soft         electrons   1757.08159974516     
 total        electrons   1811.86049971760     
 augmentation electrons   26.0718681846916     
 soft         electrons   1757.08159974516     
 total        electrons   41.9446741971252     
 translations:           0           1           0
 149 F= -.36375300E+04 E0= -.36375300E+04  d E =-.287829E-03  mag=    42.0000
 trial-energy change:   -0.000288  1 .order   -0.000278   -0.000377   -0.000180
 step:   0.4179(harm=  0.4927)  dis= 0.00055  next Energy= -3637.530066 (dE=-0.346E-03)
 reached required accuracy - stopping structural energy minimisation
 writing wavefunctions
