 vasp.6.3.2 27Jun22 (build Nov 12 2024 19:13:04) complex                        
  
 executed on             LinuxIFC date 2025.04.16  10:26:00
 running  512 mpi-ranks, with    1 threads/rank
 distrk:  each k-point on  512 cores,    1 groups
 distr:  one band on NCORE=   8 cores,   64 groups


--------------------------------------------------------------------------------------------------------


 INCAR:
   PREC = Accurate
   ISYM = 0
   IALGO = 48
   NCORE = 8
   ISMEAR = 0
   SIGMA = 0.05
   ENCUT = 500
   EDIFF = 1E-06
   LREAL = Auto
   LWAVE = .FALSE.
   LCHARG = .FALSE.
   LORBIT = 11
   LDAU = .TRUE.
   LDATYPE = 2
   LDAUL = 2 -1 -1 -1 -1
   LDAUU = 1.5 0.0 0.0 0.0 0.0
   LDAUJ = 0.0 0.0 0.0 0.0 0.0
   LMAXMIX = 4
   LDAUPRINT = 1
   LASPH = .TRUE.
   NELM = 5000
   NEDOS = 1000
   IBRION = -1
   NSW = 0
   ISPIN = 2
   MAGMOM = 12*5.0 47*0.0 24*0.0 216*0.0 336*0.0

 POTCAR:    PAW_PBE Mn_pv 02Aug2007               
 POTCAR:    PAW_PBE Br 06Sep2000                  
 POTCAR:    PAW_PBE N 08Apr2002                   
 POTCAR:    PAW_PBE C 08Apr2002                   
 POTCAR:    PAW_PBE H 15Jun2001                   
 POTCAR:    PAW_PBE Mn_pv 02Aug2007               
   SHA256 =  c79df11ab18a0e3347296df6ded47bb5f18b2e4fbd621d0b5280d2eae24c30a0 Mn_pv/POTCAR          
   COPYR  = (c) Copyright 02Aug2007 Georg Kresse                                                    
   COPYR  = This file is part of the software VASP. Any use, copying, and all other rights are regul
   COPYR  = If you do not have a valid VASP license, you may not use, copy or distribute this file. 
   VRHFIN =Mn: 3p4s3d                                                                               
   LEXCH  = PE                                                                                      
   EATOM  =  2025.2664 eV,  148.8529 Ry                                                             
                                                                                                    
   TITEL  = PAW_PBE Mn_pv 02Aug2007                                                                 
   LULTRA =        F    use ultrasoft PP ?                                                          
   IUNSCR =        1    unscreen: 0-lin 1-nonlin 2-no                                               
   RPACOR =    2.080    partial core radius                                                         
   POMASS =   54.938; ZVAL   =   13.000    mass and valenz                                          
   RCORE  =    2.300    outmost cutoff radius                                                       
   RWIGS  =    2.500; RWIGS  =    1.323    wigner-seitz radius (au A)                               
   ENMAX  =  269.864; ENMIN  =  202.398 eV                                                          
   ICORE  =        3    local potential                                                             
   LCOR   =        T    correct aug charges                                                         
   LPAW   =        T    paw PP                                                                      
   EAUG   =  569.085                                                                                
   DEXC   =    0.000                                                                                
   RMAX   =    2.343    core radius for proj-oper                                                   
   RAUG   =    1.300    factor for augmentation sphere                                              
   RDEP   =    2.338    radius for radial grids                                                     
   RDEPT  =    1.798    core radius for aug-charge                                                  
                                                                                                    
   Atomic configuration                                                                             
    8 entries                                                                                       
     n  l   j            E        occ.                                                              
     1  0  0.50     -6424.8287   2.0000                                                             
     2  0  0.50      -739.1154   2.0000                                                             
     2  1  1.50      -625.3949   6.0000                                                             
     3  0  0.50       -81.6100   2.0000                                                             
     3  1  1.50       -50.4667   6.0000                                                             
     3  2  2.50        -3.3745   6.0000                                                             
     4  0  0.50        -4.1331   1.0000                                                             
     4  3  2.50        -1.3606   0.0000                                                             
   Description                                                                                      
     l       E           TYP  RCUT    TYP  RCUT                                                     
     1    -50.4666628     23  2.000                                                                 
     1     -1.3605826     23  2.000                                                                 
     2     -3.3744729     23  2.300                                                                 
     2     -4.7350555     23  2.300                                                                 
     0     -4.1331431     23  2.300                                                                 
     0      7.6656591     23  2.300                                                                 
     3      9.5240782     23  2.300                                                                 
  local pseudopotential read in
  partial core-charges read in
  partial kinetic energy density read in
  atomic valenz-charges read in
  non local Contribution for L=           1  read in
    real space projection operators read in
  non local Contribution for L=           1  read in
    real space projection operators read in
  non local Contribution for L=           2  read in
    real space projection operators read in
  non local Contribution for L=           2  read in
    real space projection operators read in
  non local Contribution for L=           0  read in
    real space projection operators read in
  non local Contribution for L=           0  read in
    real space projection operators read in
    PAW grid and wavefunctions read in
 
   number of l-projection  operators is LMAX  =           6
   number of lm-projection operators is LMMAX =          18
 
 POTCAR:    PAW_PBE Br 06Sep2000                  
   SHA256 =  96a73d2954943bbee26f4990d676cc6c3bf44b8dd2c75cd4b3b825d8403f0103 Br/POTCAR             
   COPYR  = (c) Copyright 06Sep2000 Georg Kresse                                                    
   COPYR  = This file is part of the software VASP. Any use, copying, and all other rights are regul
   COPYR  = If you do not have a valid VASP license, you may not use, copy or distribute this file. 
   VRHFIN =Br: s2p5                                                                                 
   LEXCH  = PE                                                                                      
   EATOM  =   368.4488 eV,   27.0802 Ry                                                             
                                                                                                    
   TITEL  = PAW_PBE Br 06Sep2000                                                                    
   LULTRA =        F    use ultrasoft PP ?                                                          
   IUNSCR =        1    unscreen: 0-lin 1-nonlin 2-no                                               
   RPACOR =    1.900    partial core radius                                                         
   POMASS =   79.904; ZVAL   =    7.000    mass and valenz                                          
   RCORE  =    2.100    outmost cutoff radius                                                       
   RWIGS  =    2.200; RWIGS  =    1.164    wigner-seitz radius (au A)                               
   ENMAX  =  216.285; ENMIN  =  162.214 eV                                                          
   ICORE  =        3    local potential                                                             
   LCOR   =        T    correct aug charges                                                         
   LPAW   =        T    paw PP                                                                      
   EAUG   =  503.852                                                                                
   DEXC   =    0.000                                                                                
   RMAX   =    2.139    core radius for proj-oper                                                   
   RAUG   =    1.300    factor for augmentation sphere                                              
   RDEP   =    2.186    radius for radial grids                                                     
   RDEPT  =    1.890    core radius for aug-charge                                                  
                                                                                                    
   Atomic configuration                                                                             
   10 entries                                                                                       
     n  l   j            E        occ.                                                              
     1  0  0.50    -13316.2796   2.0000                                                             
     2  0  0.50     -1732.8239   2.0000                                                             
     2  1  1.50     -1528.2193   6.0000                                                             
     3  0  0.50      -238.0460   2.0000                                                             
     3  1  1.50      -173.4609   6.0000                                                             
     3  2  2.50       -66.7132  10.0000                                                             
     4  0  0.50       -20.1334   2.0000                                                             
     4  1  0.50        -7.8591   5.0000                                                             
     4  2  2.50        -8.1635   0.0000                                                             
     4  3  2.50        -8.1635   0.0000                                                             
   Description                                                                                      
     l       E           TYP  RCUT    TYP  RCUT                                                     
     0    -20.1333652     23  2.100                                                                 
     0    -21.4939478     23  2.100                                                                 
     1     -7.8591052     23  2.100                                                                 
     1     -3.1608434     23  2.100                                                                 
     2     -8.1634956     23  2.100                                                                 
     3     -1.3605826      7  2.100                                                                 
  local pseudopotential read in
  partial core-charges read in
  partial kinetic energy density read in
  atomic valenz-charges read in
  non local Contribution for L=           0  read in
    real space projection operators read in
  non local Contribution for L=           0  read in
    real space projection operators read in
  non local Contribution for L=           1  read in
    real space projection operators read in
  non local Contribution for L=           1  read in
    real space projection operators read in
  non local Contribution for L=           2  read in
    real space projection operators read in
    PAW grid and wavefunctions read in
 
   number of l-projection  operators is LMAX  =           5
   number of lm-projection operators is LMMAX =          13
 
 POTCAR:    PAW_PBE N 08Apr2002                   
   SHA256 =  e053789ff3a61a86a1b75d8a110fcc91f86041011e7b0817c7c99e4e8a6349d7 N/POTCAR              
   COPYR  = (c) Copyright 08Apr2002 Georg Kresse                                                    
   COPYR  = This file is part of the software VASP. Any use, copying, and all other rights are regul
   COPYR  = If you do not have a valid VASP license, you may not use, copy or distribute this file. 
   VRHFIN =N: s2p3                                                                                  
   LEXCH  = PE                                                                                      
   EATOM  =   264.5486 eV,   19.4438 Ry                                                             
                                                                                                    
   TITEL  = PAW_PBE N 08Apr2002                                                                     
   LULTRA =        F    use ultrasoft PP ?                                                          
   IUNSCR =        1    unscreen: 0-lin 1-nonlin 2-no                                               
   RPACOR =    1.200    partial core radius                                                         
   POMASS =   14.001; ZVAL   =    5.000    mass and valenz                                          
   RCORE  =    1.500    outmost cutoff radius                                                       
   RWIGS  =    1.400; RWIGS  =    0.741    wigner-seitz radius (au A)                               
   ENMAX  =  400.000; ENMIN  =  300.000 eV                                                          
   ICORE  =        2    local potential                                                             
   LCOR   =        T    correct aug charges                                                         
   LPAW   =        T    paw PP                                                                      
   EAUG   =  627.112                                                                                
   DEXC   =    0.000                                                                                
   RMAX   =    1.529    core radius for proj-oper                                                   
   RAUG   =    1.300    factor for augmentation sphere                                              
   RDEP   =    1.514    radius for radial grids                                                     
   RDEPT  =    1.338    core radius for aug-charge                                                  
                                                                                                    
   Atomic configuration                                                                             
    4 entries                                                                                       
     n  l   j            E        occ.                                                              
     1  0  0.50      -384.7179   2.0000                                                             
     2  0  0.50       -18.5828   2.0000                                                             
     2  1  0.50        -7.0898   3.0000                                                             
     3  2  1.50        -6.8029   0.0000                                                             
   Description                                                                                      
     l       E           TYP  RCUT    TYP  RCUT                                                     
     0    -18.5828119     23  1.200                                                                 
     0    -13.5018863     23  1.200                                                                 
     1     -7.0897853     23  1.500                                                                 
     1      9.5240782     23  1.500                                                                 
     2     -6.8029130      7  1.500                                                                 
  local pseudopotential read in
  partial core-charges read in
  partial kinetic energy density read in
  atomic valenz-charges read in
  non local Contribution for L=           0  read in
    real space projection operators read in
  non local Contribution for L=           0  read in
    real space projection operators read in
  non local Contribution for L=           1  read in
    real space projection operators read in
  non local Contribution for L=           1  read in
    real space projection operators read in
    PAW grid and wavefunctions read in
 
   number of l-projection  operators is LMAX  =           4
   number of lm-projection operators is LMMAX =           8
 
 POTCAR:    PAW_PBE C 08Apr2002                   
   SHA256 =  253f7b50bb8d59471dbedb8285d89021f4a42ed1a2c5d38a03a736e69125dd95 C/POTCAR              
   COPYR  = (c) Copyright 08Apr2002 Georg Kresse                                                    
   COPYR  = This file is part of the software VASP. Any use, copying, and all other rights are regul
   COPYR  = If you do not have a valid VASP license, you may not use, copy or distribute this file. 
   VRHFIN =C: s2p2                                                                                  
   LEXCH  = PE                                                                                      
   EATOM  =   147.1560 eV,   10.8157 Ry                                                             
                                                                                                    
   TITEL  = PAW_PBE C 08Apr2002                                                                     
   LULTRA =        F    use ultrasoft PP ?                                                          
   IUNSCR =        1    unscreen: 0-lin 1-nonlin 2-no                                               
   RPACOR =    1.200    partial core radius                                                         
   POMASS =   12.011; ZVAL   =    4.000    mass and valenz                                          
   RCORE  =    1.500    outmost cutoff radius                                                       
   RWIGS  =    1.630; RWIGS  =    0.863    wigner-seitz radius (au A)                               
   ENMAX  =  400.000; ENMIN  =  300.000 eV                                                          
   ICORE  =        2    local potential                                                             
   LCOR   =        T    correct aug charges                                                         
   LPAW   =        T    paw PP                                                                      
   EAUG   =  644.873                                                                                
   DEXC   =    0.000                                                                                
   RMAX   =    1.529    core radius for proj-oper                                                   
   RAUG   =    1.300    factor for augmentation sphere                                              
   RDEP   =    1.501    radius for radial grids                                                     
   RDEPT  =    1.300    core radius for aug-charge                                                  
                                                                                                    
   Atomic configuration                                                                             
    4 entries                                                                                       
     n  l   j            E        occ.                                                              
     1  0  0.50      -273.3789   2.0000                                                             
     2  0  0.50       -13.7508   2.0000                                                             
     2  1  0.50        -5.2854   2.0000                                                             
     3  2  1.50        -5.4423   0.0000                                                             
   Description                                                                                      
     l       E           TYP  RCUT    TYP  RCUT                                                     
     0    -13.7508458     23  1.200                                                                 
     0     -8.2022199     23  1.200                                                                 
     1     -5.2854383     23  1.500                                                                 
     1     34.0145650     23  1.500                                                                 
     2     -5.4423304      7  1.500                                                                 
  local pseudopotential read in
  partial core-charges read in
  partial kinetic energy density read in
  atomic valenz-charges read in
  non local Contribution for L=           0  read in
    real space projection operators read in
  non local Contribution for L=           0  read in
    real space projection operators read in
  non local Contribution for L=           1  read in
    real space projection operators read in
  non local Contribution for L=           1  read in
    real space projection operators read in
    PAW grid and wavefunctions read in
 
   number of l-projection  operators is LMAX  =           4
   number of lm-projection operators is LMMAX =           8
 
 POTCAR:    PAW_PBE H 15Jun2001                   
   SHA256 =  030f79b5d3ab3cf0e668861823c8fb652ff669f3e15e46930bd03bfd63a607b6 H/POTCAR              
   COPYR  = (c) Copyright 15Jun2001 Georg Kresse                                                    
   COPYR  = This file is part of the software VASP. Any use, copying, and all other rights are regul
   COPYR  = If you do not have a valid VASP license, you may not use, copy or distribute this file. 
   VRHFIN =H: ultrasoft test                                                                        
   LEXCH  = PE                                                                                      
   EATOM  =    12.4884 eV,    0.9179 Ry                                                             
                                                                                                    
   TITEL  = PAW_PBE H 15Jun2001                                                                     
   LULTRA =        F    use ultrasoft PP ?                                                          
   IUNSCR =        0    unscreen: 0-lin 1-nonlin 2-no                                               
   RPACOR =    0.000    partial core radius                                                         
   POMASS =    1.000; ZVAL   =    1.000    mass and valenz                                          
   RCORE  =    1.100    outmost cutoff radius                                                       
   RWIGS  =    0.700; RWIGS  =    0.370    wigner-seitz radius (au A)                               
   ENMAX  =  250.000; ENMIN  =  200.000 eV                                                          
   RCLOC  =    0.701    cutoff for local pot                                                        
   LCOR   =        T    correct aug charges                                                         
   LPAW   =        T    paw PP                                                                      
   EAUG   =  400.000                                                                                
   RMAX   =    1.123    core radius for proj-oper                                                   
   RAUG   =    1.200    factor for augmentation sphere                                              
   RDEP   =    1.112    radius for radial grids                                                     
   RDEPT  =    0.926    core radius for aug-charge                                                  
                                                                                                    
   Atomic configuration                                                                             
    2 entries                                                                                       
     n  l   j            E        occ.                                                              
     1  0  0.50        -6.4927   1.0000                                                             
     2  1  0.50        -3.4015   0.0000                                                             
   Description                                                                                      
     l       E           TYP  RCUT    TYP  RCUT                                                     
     0     -6.4927494     23  1.100                                                                 
     0      6.8029130     23  1.100                                                                 
     1     -4.0817478     23  1.100                                                                 
  local pseudopotential read in
  atomic valenz-charges read in
  non local Contribution for L=           0  read in
    real space projection operators read in
  non local Contribution for L=           0  read in
    real space projection operators read in
  non local Contribution for L=           1  read in
    real space projection operators read in
    PAW grid and wavefunctions read in
 
   number of l-projection  operators is LMAX  =           3
   number of lm-projection operators is LMMAX =           5
 
 Optimization of the real space projectors (new method)

 maximal supplied QI-value         = 16.25
 optimisation between [QCUT,QGAM] = [ 11.38, 22.75] = [ 36.24,144.96] Ry 
 Optimized for a Real-space Cutoff    1.47 Angstroem

   l    n(q)    QCUT    max X(q) W(low)/X(q) W(high)/X(q)  e(spline) 
   1     10    11.376     3.658    0.62E-04    0.11E-03    0.11E-06
   1     10    11.376     5.612    0.12E-03    0.20E-03    0.19E-06
   2      9    11.376    55.373    0.10E-03    0.85E-04    0.19E-06
   2      9    11.376    50.863    0.11E-03    0.88E-04    0.19E-06
   0     10    11.376    79.536    0.52E-04    0.21E-04    0.79E-07
   0     10    11.376    38.668    0.45E-04    0.19E-04    0.74E-07
 Optimization of the real space projectors (new method)

 maximal supplied QI-value         = 17.95
 optimisation between [QCUT,QGAM] = [ 11.31, 22.80] = [ 35.82,145.56] Ry 
 Optimized for a Real-space Cutoff    1.31 Angstroem

   l    n(q)    QCUT    max X(q) W(low)/X(q) W(high)/X(q)  e(spline) 
   0      9    11.310   175.082    0.48E-04    0.59E-04    0.71E-07
   0      9    11.310   174.004    0.47E-04    0.57E-04    0.69E-07
   1      8    11.310    54.315    0.11E-03    0.13E-03    0.93E-07
   1      8    11.310    42.441    0.10E-03    0.13E-03    0.91E-07
   2      8    11.310     3.596    0.18E-04    0.69E-04    0.67E-07
 Optimization of the real space projectors (new method)

 maximal supplied QI-value         = 25.13
 optimisation between [QCUT,QGAM] = [ 11.31, 22.87] = [ 35.82,146.48] Ry 
 Optimized for a Real-space Cutoff    1.43 Angstroem

   l    n(q)    QCUT    max X(q) W(low)/X(q) W(high)/X(q)  e(spline) 
   0     10    11.310    79.467    0.42E-04    0.81E-04    0.60E-06
   0     10    11.310    66.151    0.40E-04    0.81E-04    0.60E-06
   1      9    11.310    17.416    0.14E-03    0.88E-04    0.14E-05
   1      9    11.310    12.382    0.15E-03    0.93E-04    0.14E-05
 Optimization of the real space projectors (new method)

 maximal supplied QI-value         = 25.13
 optimisation between [QCUT,QGAM] = [ 11.31, 22.87] = [ 35.82,146.48] Ry 
 Optimized for a Real-space Cutoff    1.03 Angstroem

   l    n(q)    QCUT    max X(q) W(low)/X(q) W(high)/X(q)  e(spline) 
   0      7    11.310   115.676    0.20E-03    0.90E-03    0.20E-06
   0      7    11.310    87.132    0.20E-03    0.89E-03    0.19E-06
   1      6    11.310     4.429    0.16E-03    0.28E-03    0.12E-06
   1      6    11.310     2.733    0.12E-03    0.21E-03    0.99E-07
 Optimization of the real space projectors (new method)

 maximal supplied QI-value         = 34.20
 optimisation between [QCUT,QGAM] = [ 11.29, 22.57] = [ 35.68,142.71] Ry 
 Optimized for a Real-space Cutoff    1.20 Angstroem

   l    n(q)    QCUT    max X(q) W(low)/X(q) W(high)/X(q)  e(spline) 
   0      8    11.287    19.460    0.22E-03    0.50E-03    0.19E-06
   0      8    11.287    12.209    0.21E-03    0.48E-03    0.18E-06
   1      8    11.287     4.655    0.21E-03    0.11E-04    0.26E-06
  PAW_PBE Mn_pv 02Aug2007               :
 energy of atom  1       EATOM=-2025.2664
 kinetic energy error for atom=    0.0062 (will be added to EATOM!!)
  PAW_PBE Br 06Sep2000                  :
 energy of atom  2       EATOM= -368.4488
 kinetic energy error for atom=    0.0011 (will be added to EATOM!!)
  PAW_PBE N 08Apr2002                   :
 energy of atom  3       EATOM= -264.5486
 kinetic energy error for atom=    0.0138 (will be added to EATOM!!)
  PAW_PBE C 08Apr2002                   :
 energy of atom  4       EATOM= -147.1560
 kinetic energy error for atom=    0.0076 (will be added to EATOM!!)
  PAW_PBE H 15Jun2001                   :
 energy of atom  5       EATOM=  -12.4884
 kinetic energy error for atom=    0.0020 (will be added to EATOM!!)
 
 
 POSCAR: (c9 h14 n), br4 mn
  positions in direct lattice
  velocities in cartesian coordinates
 exchange correlation table for  LEXCH =        8
   RHO(1)=    0.500       N(1)  =     2000
   RHO(2)=  100.500       N(2)  =     4000
 


--------------------------------------------------------------------------------------------------------


 ion  position               nearest neighbor table
   1  0.985  0.482  0.752-  22 2.47  14 2.47  20 2.48
   2  0.000  0.479  0.250-  23 2.52  13 2.52  21 2.52  15 2.53
   3  0.499  0.020  0.750-  26 2.52  16 2.52  24 2.52  18 2.53
   4  0.500  0.980  0.250-  27 2.52  25 2.52  17 2.52  19 2.53
   5  0.723  0.597  0.912-  52 2.51  44 2.51  36 2.52  28 2.53
   6  0.277  0.406  0.087-  37 2.51  45 2.52  53 2.52  29 2.52
   7  0.277  0.598  0.588-  54 2.49  46 2.50  38 2.51  30 2.53
   8  0.725  0.404  0.413-  39 2.48  47 2.49  55 2.49  31 2.50
   9  0.223  0.096  0.912-  56 2.51  40 2.51  48 2.51  32 2.54
  10  0.777  0.907  0.087-  41 2.47  49 2.49  57 2.49  33 2.50
  11  0.777  0.096  0.588-  58 2.51  50 2.51  42 2.51  34 2.54
  12  0.225  0.906  0.413-  43 2.47  51 2.48  59 2.49  35 2.49
  13  0.912  0.307  0.275-   2 2.52
  14  0.930  0.709  0.771-   1 2.47
  15  0.088  0.306  0.225-   2 2.53
  16  0.588  0.193  0.725-   3 2.52
  17  0.412  0.806  0.275-   4 2.52
  18  0.410  0.193  0.775-   3 2.53
  19  0.588  0.806  0.225-   4 2.53
  20  0.082  0.350  0.784-   1 2.48
  21  0.926  0.642  0.215-   2 2.52
  22  0.926  0.350  0.711-   1 2.47
  23  0.074  0.642  0.285-   2 2.52
  24  0.574  0.858  0.785-   3 2.52
  25  0.426  0.142  0.215-   4 2.52
  26  0.423  0.856  0.716-   3 2.52
  27  0.574  0.142  0.285-   4 2.52
  28  0.658  0.385  0.886-   5 2.53
  29  0.343  0.617  0.113-   6 2.52
  30  0.342  0.387  0.614-   7 2.53
  31  0.660  0.613  0.388-   8 2.50
  32  0.157  0.884  0.886-   9 2.54
  33  0.842  0.116  0.113-  10 2.50
  34  0.843  0.884  0.614-  11 2.54
  35  0.159  0.113  0.387-  12 2.49
  36  0.790  0.748  0.876-   5 2.52
  37  0.208  0.256  0.123-   6 2.51
  38  0.209  0.746  0.624-   7 2.51
  39  0.790  0.252  0.377-   8 2.48
  40  0.290  0.247  0.876-   9 2.51
  41  0.710  0.755  0.122-  10 2.47
  42  0.710  0.247  0.624-  11 2.51
  43  0.290  0.755  0.378-  12 2.47
  44  0.633  0.766  0.937-   5 2.51
  45  0.367  0.235  0.062-   6 2.52
  46  0.364  0.769  0.563-   7 2.50
  47  0.636  0.236  0.437-   8 2.49
  48  0.133  0.266  0.937-   9 2.51
  49  0.864  0.736  0.062-  10 2.49
  50  0.867  0.267  0.563-  11 2.51
  51  0.136  0.738  0.437-  12 2.48
  52  0.822  0.498  0.948-   5 2.51
  53  0.179  0.504  0.050-   6 2.52
  54  0.180  0.497  0.552-   7 2.49
  55  0.820  0.505  0.449-   8 2.49
  56  0.322  0.998  0.948-   9 2.51
  57  0.680  0.004  0.051-  10 2.49
  58  0.679  0.997  0.551-  11 2.51
  59  0.321  0.005  0.449-  12 2.49
  60  0.831  0.026  0.972- 100 1.51  84 1.51 108 1.51  92 1.51
  61  0.169  0.974  0.028- 101 1.51  85 1.51 109 1.51  93 1.52
  62  0.169  0.026  0.528- 102 1.51  86 1.51 110 1.51  94 1.52
  63  0.831  0.974  0.472- 103 1.51  87 1.51 111 1.51  95 1.51
  64  0.331  0.526  0.972- 104 1.51  88 1.51 112 1.51  96 1.51
  65  0.669  0.474  0.028- 105 1.51  89 1.51 113 1.51  97 1.52
  66  0.669  0.526  0.528- 106 1.51  90 1.51 114 1.51  98 1.51
  67  0.331  0.475  0.472- 107 1.51  91 1.51 115 1.51  99 1.51
  68  0.522  0.003  0.870- 180 1.50 156 1.51 172 1.51 164 1.51
  69  0.479  0.997  0.130- 181 1.50 157 1.51 173 1.51 165 1.51
  70  0.477  0.003  0.630- 182 1.50 158 1.51 174 1.51 166 1.51
  71  0.522  0.997  0.370- 183 1.50 159 1.50 175 1.51 167 1.51
  72  0.022  0.502  0.869- 184 1.51 160 1.51 176 1.51 168 1.51
  73  0.977  0.498  0.130- 185 1.50 161 1.51 177 1.51 169 1.51
  74  0.979  0.504  0.630- 186 1.51 162 1.51 178 1.51 170 1.51
  75  0.022  0.497  0.370- 187 1.50 163 1.50 179 1.51 171 1.51
  76  0.696  0.449  0.794- 252 1.50 228 1.51 244 1.51 236 1.51
  77  0.304  0.551  0.206- 253 1.51 229 1.51 245 1.51 237 1.51
  78  0.303  0.448  0.706- 254 1.51 230 1.51 238 1.51 246 1.51
  79  0.696  0.551  0.294- 255 1.50 231 1.51 239 1.51 247 1.51
  80  0.197  0.946  0.794- 232 1.51 256 1.51 240 1.51 248 1.51
  81  0.804  0.051  0.206- 257 1.50 233 1.51 241 1.51 249 1.51
  82  0.803  0.948  0.706- 234 1.50 258 1.51 242 1.51 250 1.51
  83  0.196  0.051  0.294- 259 1.50 235 1.51 243 1.51 251 1.51
  84  0.818  0.878  0.985- 316 1.09 308 1.09 300 1.10  60 1.51
  85  0.182  0.122  0.015- 317 1.09 309 1.09 301 1.10  61 1.51
  86  0.182  0.878  0.515- 318 1.09 310 1.09 302 1.10  62 1.51
  87  0.818  0.122  0.485- 319 1.09 311 1.09 303 1.10  63 1.51
  88  0.318  0.378  0.985- 320 1.09 312 1.09 304 1.09  64 1.51
  89  0.682  0.622  0.016- 321 1.09 313 1.09 305 1.10  65 1.51
  90  0.682  0.378  0.515- 322 1.09 314 1.09 306 1.09  66 1.51
  91  0.318  0.623  0.485- 323 1.09 315 1.09 307 1.10  67 1.51
  92  0.753  0.104  0.969- 324 1.09 340 1.10 332 1.10  60 1.51
  93  0.247  0.897  0.032- 325 1.09 341 1.10 333 1.10  61 1.52
  94  0.247  0.104  0.531- 326 1.09 342 1.10 334 1.10  62 1.52
  95  0.753  0.897  0.469- 327 1.09 343 1.10 335 1.10  63 1.51
  96  0.253  0.604  0.969- 328 1.09 344 1.10 336 1.10  64 1.51
  97  0.747  0.396  0.032- 329 1.09 345 1.10 337 1.10  65 1.52
  98  0.747  0.604  0.531- 330 1.09 346 1.10 338 1.10  66 1.51
  99  0.253  0.397  0.469- 331 1.09 347 1.10 339 1.10  67 1.51
 100  0.861  0.004  0.943- 348 1.09 364 1.09 356 1.10  60 1.51
 101  0.139  0.997  0.057- 349 1.09 365 1.09 357 1.10  61 1.51
 102  0.140  0.003  0.557- 350 1.09 366 1.09 358 1.10  62 1.51
 103  0.861  0.997  0.443- 351 1.09 367 1.09 359 1.10  63 1.51
 104  0.361  0.503  0.943- 352 1.09 368 1.09 360 1.10  64 1.51
 105  0.639  0.496  0.057- 353 1.09 369 1.09 361 1.10  65 1.51
 106  0.639  0.503  0.557- 354 1.09 370 1.09 362 1.10  66 1.51
 107  0.361  0.497  0.443- 355 1.09 371 1.09 363 1.10  67 1.51
 108  0.886  0.116  0.991- 148 1.39 116 1.40  60 1.51
 109  0.114  0.885  0.009- 149 1.39 117 1.40  61 1.51
 110  0.114  0.115  0.509- 150 1.39 118 1.40  62 1.51
 111  0.886  0.884  0.491- 151 1.39 119 1.40  63 1.51
 112  0.386  0.616  0.991- 152 1.39 120 1.40  64 1.51
 113  0.614  0.385  0.009- 153 1.39 121 1.40  65 1.51
 114  0.614  0.615  0.509- 154 1.39 122 1.40  66 1.51
 115  0.386  0.385  0.491- 155 1.39 123 1.40  67 1.51
 116  0.876  0.115  0.020- 372 1.09 124 1.39 108 1.40
 117  0.124  0.885  0.980- 373 1.09 125 1.39 109 1.40
 118  0.124  0.114  0.480- 374 1.09 126 1.39 110 1.40
 119  0.876  0.884  0.520- 375 1.09 127 1.39 111 1.40
 120  0.377  0.615  0.020- 376 1.09 128 1.39 112 1.40
 121  0.624  0.386  0.980- 377 1.09 129 1.39 113 1.40
 122  0.623  0.615  0.480- 378 1.09 130 1.39 114 1.40
 123  0.376  0.386  0.520- 379 1.09 131 1.39 115 1.40
 124  0.924  0.202  0.038- 380 1.09 116 1.39 132 1.40
 125  0.076  0.797  0.963- 381 1.09 117 1.39 133 1.40
 126  0.076  0.202  0.462- 382 1.09 118 1.39 134 1.40
 127  0.924  0.797  0.537- 383 1.09 119 1.39 135 1.40
 128  0.424  0.703  0.038- 384 1.09 120 1.39 136 1.40
 129  0.576  0.298  0.962- 385 1.09 121 1.39 137 1.40
 130  0.576  0.703  0.462- 386 1.09 122 1.39 138 1.40
 131  0.424  0.299  0.538- 387 1.09 123 1.39 139 1.40
 132  0.980  0.291  0.026- 388 1.09 140 1.39 124 1.40
 133  0.019  0.709  0.974- 389 1.09 141 1.39 125 1.40
 134  0.020  0.291  0.474- 390 1.09 142 1.39 126 1.40
 135  0.981  0.709  0.526- 391 1.09 143 1.39 127 1.40
 136  0.481  0.792  0.026- 392 1.09 144 1.39 128 1.40
 137  0.520  0.209  0.974- 393 1.09 145 1.39 129 1.40
 138  0.519  0.792  0.474- 394 1.09 146 1.39 130 1.40
 139  0.480  0.210  0.526- 395 1.09 147 1.39 131 1.40
 140  0.990  0.291  0.997- 396 1.09 132 1.39 148 1.40
 141  0.010  0.710  0.003- 397 1.09 133 1.39 149 1.40
 142  0.010  0.291  0.503- 398 1.09 134 1.39 150 1.40
 143  0.991  0.710  0.497- 399 1.09 135 1.39 151 1.40
 144  0.490  0.791  0.997- 400 1.09 136 1.39 152 1.40
 145  0.510  0.209  0.003- 401 1.09 137 1.39 153 1.40
 146  0.510  0.790  0.503- 402 1.09 138 1.39 154 1.40
 147  0.490  0.210  0.497- 403 1.09 139 1.39 155 1.40
 148  0.943  0.202  0.979- 404 1.09 108 1.39 140 1.40
 149  0.056  0.799  0.021- 405 1.09 109 1.39 141 1.40
 150  0.057  0.203  0.521- 406 1.09 110 1.39 142 1.40
 151  0.944  0.799  0.479- 407 1.09 111 1.39 143 1.40
 152  0.443  0.702  0.979- 408 1.09 112 1.39 144 1.40
 153  0.557  0.298  0.021- 409 1.09 113 1.39 145 1.40
 154  0.556  0.701  0.521- 410 1.09 114 1.39 146 1.40
 155  0.443  0.299  0.479- 411 1.09 115 1.39 147 1.40
 156  0.608  0.986  0.866- 428 1.09 412 1.09 420 1.10  68 1.51
 157  0.392  0.014  0.134- 413 1.09 429 1.09 421 1.10  69 1.51
 158  0.391  0.986  0.634- 430 1.09 414 1.09 422 1.10  70 1.51
 159  0.608  0.014  0.366- 431 1.09 415 1.09 423 1.10  71 1.50
 160  0.108  0.485  0.866- 416 1.09 432 1.09 424 1.10  72 1.51
 161  0.891  0.515  0.134- 417 1.09 433 1.09 425 1.10  73 1.51
 162  0.893  0.487  0.634- 434 1.09 418 1.09 426 1.10  74 1.51
 163  0.108  0.514  0.366- 435 1.09 419 1.09 427 1.10  75 1.50
 164  0.512  0.076  0.898- 444 1.09 436 1.10 452 1.10  68 1.51
 165  0.489  0.924  0.102- 445 1.09 437 1.10 453 1.10  69 1.51
 166  0.488  0.076  0.602- 446 1.09 438 1.10 454 1.10  70 1.51
 167  0.512  0.924  0.398- 447 1.09 439 1.10 455 1.10  71 1.51
 168  0.012  0.576  0.898- 448 1.09 440 1.10 456 1.10  72 1.51
 169  0.987  0.424  0.102- 449 1.09 441 1.10 457 1.10  73 1.51
 170  0.990  0.576  0.602- 450 1.09 442 1.10 458 1.10  74 1.51
 171  0.012  0.424  0.398- 451 1.09 443 1.10 459 1.10  75 1.51
 172  0.489  0.098  0.846- 468 1.09 476 1.09 460 1.09  68 1.51
 173  0.512  0.902  0.154- 469 1.09 477 1.09 461 1.09  69 1.51
 174  0.510  0.098  0.654- 470 1.09 478 1.09 462 1.09  70 1.51
 175  0.489  0.902  0.346- 471 1.09 479 1.09 463 1.10  71 1.51
 176  0.989  0.597  0.846- 472 1.09 480 1.09 464 1.09  72 1.51
 177  0.010  0.403  0.154- 473 1.09 481 1.09 465 1.09  73 1.51
 178  0.012  0.601  0.654- 466 1.10 474 1.10 482 1.10  74 1.51
 179  0.989  0.402  0.346- 475 1.09 483 1.09 467 1.10  75 1.51
 180  0.480  0.859  0.869- 220 1.39 188 1.40  68 1.50
 181  0.521  0.141  0.131- 221 1.39 189 1.40  69 1.50
 182  0.519  0.859  0.630- 222 1.39 190 1.40  70 1.50
 183  0.481  0.142  0.369- 223 1.39 191 1.40  71 1.50
 184  0.979  0.359  0.869- 224 1.39 192 1.40  72 1.51
 185  0.019  0.642  0.131- 225 1.39 193 1.40  73 1.50
 186  0.021  0.360  0.631- 226 1.39 194 1.40  74 1.51
 187  0.980  0.641  0.369- 227 1.39 195 1.40  75 1.50
 188  0.399  0.860  0.873- 484 1.09 196 1.39 180 1.40
 189  0.601  0.140  0.127- 485 1.09 197 1.39 181 1.40
 190  0.600  0.860  0.627- 486 1.09 198 1.39 182 1.40
 191  0.400  0.141  0.373- 487 1.09 199 1.39 183 1.40
 192  0.899  0.360  0.873- 488 1.09 200 1.39 184 1.40
 193  0.100  0.640  0.127- 489 1.09 201 1.39 185 1.40
 194  0.102  0.361  0.627- 490 1.09 202 1.39 186 1.40
 195  0.900  0.640  0.373- 491 1.09 203 1.39 187 1.40
 196  0.359  0.728  0.874- 492 1.09 188 1.39 204 1.40
 197  0.641  0.272  0.126- 493 1.09 189 1.39 205 1.40
 198  0.640  0.728  0.626- 494 1.09 190 1.39 206 1.40
 199  0.360  0.273  0.374- 495 1.09 191 1.39 207 1.40
 200  0.859  0.228  0.874- 496 1.09 192 1.39 208 1.40
 201  0.140  0.772  0.126- 497 1.09 193 1.39 209 1.40
 202  0.141  0.228  0.626- 498 1.09 194 1.39 210 1.40
 203  0.860  0.772  0.374- 499 1.09 195 1.39 211 1.40
 204  0.400  0.597  0.872- 500 1.09 212 1.39 196 1.40
 205  0.601  0.404  0.128- 501 1.09 213 1.39 197 1.40
 206  0.600  0.597  0.628- 502 1.09 214 1.39 198 1.40
 207  0.401  0.404  0.372- 503 1.09 215 1.39 199 1.40
 208  0.899  0.097  0.872- 504 1.09 216 1.39 200 1.40
 209  0.100  0.904  0.128- 505 1.09 217 1.39 201 1.40
 210  0.101  0.097  0.628- 506 1.09 218 1.39 202 1.40
 211  0.900  0.904  0.372- 507 1.09 219 1.39 203 1.40
 212  0.480  0.597  0.868- 508 1.09 204 1.39 220 1.40
 213  0.521  0.403  0.132- 509 1.09 205 1.39 221 1.40
 214  0.520  0.597  0.632- 510 1.09 206 1.39 222 1.40
 215  0.481  0.403  0.368- 511 1.09 207 1.39 223 1.40
 216  0.979  0.097  0.868- 512 1.09 208 1.39 224 1.40
 217  0.019  0.903  0.132- 513 1.09 209 1.39 225 1.40
 218  0.021  0.099  0.632- 514 1.09 210 1.39 226 1.40
 219  0.981  0.903  0.368- 515 1.09 211 1.39 227 1.40
 220  0.520  0.729  0.867- 516 1.09 180 1.39 212 1.40
 221  0.480  0.272  0.133- 517 1.09 181 1.39 213 1.40
 222  0.479  0.729  0.633- 518 1.09 182 1.39 214 1.40
 223  0.521  0.271  0.367- 519 1.09 183 1.39 215 1.40
 224  0.020  0.228  0.867- 520 1.09 184 1.39 216 1.40
 225  0.978  0.772  0.133- 521 1.09 185 1.39 217 1.40
 226  0.980  0.230  0.633- 522 1.09 186 1.39 218 1.40
 227  0.021  0.771  0.367- 523 1.09 187 1.39 219 1.40
 228  0.610  0.424  0.798- 540 1.09 524 1.09 532 1.10  76 1.51
 229  0.390  0.577  0.202- 541 1.09 525 1.09 533 1.10  77 1.51
 230  0.389  0.422  0.702- 526 1.09 542 1.10 534 1.10  78 1.51
 231  0.610  0.577  0.298- 527 1.09 543 1.09 535 1.10  79 1.51
 232  0.111  0.921  0.799- 544 1.09 528 1.09 536 1.10  80 1.51
 233  0.890  0.077  0.202- 545 1.09 529 1.09 537 1.10  81 1.51
 234  0.888  0.923  0.701- 546 1.10 538 1.10 530 1.10  82 1.50
 235  0.110  0.077  0.298- 531 1.09 547 1.09 539 1.10  83 1.51
 236  0.705  0.506  0.764- 556 1.09 548 1.09 564 1.10  76 1.51
 237  0.295  0.494  0.236- 557 1.09 549 1.09 565 1.10  77 1.51
 238  0.295  0.506  0.736- 558 1.09 550 1.09 566 1.10  78 1.51
 239  0.704  0.494  0.264- 559 1.09 551 1.09 567 1.10  79 1.51
 240  0.204  0.003  0.764- 552 1.09 560 1.09 568 1.10  80 1.51
 241  0.796  0.994  0.236- 561 1.09 553 1.09 569 1.10  81 1.51
 242  0.795  0.006  0.735- 554 1.09 562 1.09 570 1.10  82 1.51
 243  0.204  0.994  0.264- 563 1.09 555 1.09 571 1.10  83 1.51
 244  0.724  0.563  0.815- 580 1.09 588 1.09 572 1.10  76 1.51
 245  0.277  0.438  0.184- 581 1.09 589 1.09 573 1.10  77 1.51
 246  0.276  0.560  0.684- 582 1.09 590 1.10 574 1.10  78 1.51
 247  0.723  0.438  0.316- 583 1.09 591 1.09 575 1.10  79 1.51
 248  0.225  0.061  0.816- 584 1.09 592 1.09 576 1.10  80 1.51
 249  0.777  0.938  0.184- 585 1.09 593 1.09 577 1.10  81 1.51
 250  0.774  0.060  0.684- 586 1.09 594 1.09 578 1.10  82 1.51
 251  0.223  0.938  0.316- 587 1.09 595 1.09 579 1.10  83 1.51
 252  0.745  0.313  0.798- 292 1.39 260 1.40  76 1.50
 253  0.256  0.687  0.202- 293 1.39 261 1.40  77 1.51
 254  0.254  0.312  0.702- 294 1.39 262 1.40  78 1.51
 255  0.744  0.687  0.298- 295 1.39 263 1.40  79 1.50
 256  0.246  0.811  0.798- 296 1.39 264 1.40  80 1.51
 257  0.756  0.187  0.202- 297 1.39 265 1.40  81 1.50
 258  0.754  0.812  0.702- 298 1.39 266 1.40  82 1.51
 259  0.244  0.187  0.298- 299 1.39 267 1.40  83 1.50
 260  0.825  0.324  0.796- 596 1.09 268 1.39 252 1.40
 261  0.175  0.676  0.204- 597 1.09 269 1.39 253 1.40
 262  0.174  0.323  0.705- 598 1.09 270 1.39 254 1.40
 263  0.825  0.676  0.296- 599 1.09 271 1.39 255 1.40
 264  0.326  0.823  0.795- 600 1.09 272 1.39 256 1.40
 265  0.675  0.176  0.204- 601 1.09 273 1.39 257 1.40
 266  0.674  0.823  0.705- 602 1.09 274 1.39 258 1.40
 267  0.325  0.176  0.296- 603 1.09 275 1.39 259 1.40
 268  0.872  0.200  0.800- 604 1.09 260 1.39 276 1.40
 269  0.128  0.800  0.201- 605 1.09 261 1.39 277 1.40
 270  0.127  0.200  0.701- 606 1.09 262 1.39 278 1.40
 271  0.871  0.800  0.299- 607 1.09 263 1.39 279 1.40
 272  0.373  0.701  0.799- 608 1.09 264 1.39 280 1.40
 273  0.629  0.300  0.201- 609 1.09 265 1.39 281 1.40
 274  0.627  0.699  0.701- 610 1.09 266 1.39 282 1.40
 275  0.371  0.300  0.299- 611 1.09 267 1.39 283 1.40
 276  0.838  0.066  0.806- 612 1.09 284 1.39 268 1.40
 277  0.162  0.933  0.194- 613 1.09 285 1.39 269 1.40
 278  0.161  0.067  0.694- 614 1.09 286 1.39 270 1.40
 279  0.838  0.933  0.306- 615 1.09 287 1.39 271 1.40
 280  0.341  0.567  0.806- 616 1.09 288 1.39 272 1.40
 281  0.662  0.433  0.194- 617 1.09 289 1.39 273 1.40
 282  0.661  0.565  0.694- 618 1.09 290 1.39 274 1.40
 283  0.338  0.433  0.306- 619 1.09 291 1.39 275 1.40
 284  0.757  0.057  0.808- 620 1.09 276 1.39 292 1.40
 285  0.243  0.943  0.191- 621 1.09 277 1.39 293 1.40
 286  0.241  0.057  0.691- 622 1.09 278 1.39 294 1.40
 287  0.757  0.943  0.309- 623 1.09 279 1.39 295 1.40
 288  0.260  0.556  0.809- 624 1.09 280 1.39 296 1.40
 289  0.743  0.443  0.191- 625 1.09 281 1.39 297 1.40
 290  0.741  0.556  0.692- 626 1.09 282 1.39 298 1.40
 291  0.257  0.443  0.309- 627 1.09 283 1.39 299 1.40
 292  0.710  0.180  0.804- 628 1.09 252 1.39 284 1.40
 293  0.290  0.820  0.195- 629 1.09 253 1.39 285 1.40
 294  0.288  0.180  0.695- 630 1.09 254 1.39 286 1.40
 295  0.710  0.820  0.305- 631 1.09 255 1.39 287 1.40
 296  0.212  0.678  0.805- 632 1.09 256 1.39 288 1.40
 297  0.790  0.320  0.195- 633 1.09 257 1.39 289 1.40
 298  0.789  0.679  0.695- 634 1.09 258 1.39 290 1.40
 299  0.210  0.320  0.305- 635 1.09 259 1.39 291 1.40
 300  0.780  0.816  0.970-  84 1.10
 301  0.220  0.184  0.030-  85 1.10
 302  0.220  0.816  0.530-  86 1.10
 303  0.781  0.184  0.470-  87 1.10
 304  0.280  0.316  0.970-  88 1.09
 305  0.720  0.684  0.031-  89 1.10
 306  0.720  0.316  0.530-  90 1.09
 307  0.280  0.684  0.470-  91 1.10
 308  0.789  0.890  0.005-  84 1.09
 309  0.211  0.110  0.995-  85 1.09
 310  0.211  0.890  0.495-  86 1.09
 311  0.789  0.110  0.505-  87 1.09
 312  0.289  0.390  0.005-  88 1.09
 313  0.711  0.610  0.996-  89 1.09
 314  0.710  0.390  0.495-  90 1.09
 315  0.289  0.611  0.505-  91 1.09
 316  0.874  0.824  0.988-  84 1.09
 317  0.126  0.176  0.012-  85 1.09
 318  0.126  0.824  0.512-  86 1.09
 319  0.875  0.176  0.488-  87 1.09
 320  0.375  0.324  0.988-  88 1.09
 321  0.626  0.676  0.012-  89 1.09
 322  0.625  0.324  0.512-  90 1.09
 323  0.374  0.677  0.488-  91 1.09
 324  0.729  0.113  0.990-  92 1.09
 325  0.271  0.887  0.011-  93 1.09
 326  0.271  0.113  0.510-  94 1.09
 327  0.729  0.887  0.490-  95 1.09
 328  0.229  0.613  0.990-  96 1.09
 329  0.771  0.387  0.011-  97 1.09
 330  0.771  0.613  0.510-  98 1.09
 331  0.229  0.388  0.490-  99 1.09
 332  0.714  0.038  0.955-  92 1.10
 333  0.286  0.963  0.045-  93 1.10
 334  0.286  0.038  0.545-  94 1.10
 335  0.714  0.963  0.455-  95 1.10
 336  0.214  0.537  0.955-  96 1.10
 337  0.786  0.463  0.045-  97 1.10
 338  0.786  0.538  0.545-  98 1.10
 339  0.214  0.463  0.455-  99 1.10
 340  0.763  0.212  0.960-  92 1.10
 341  0.237  0.789  0.041-  93 1.10
 342  0.237  0.212  0.540-  94 1.10
 343  0.763  0.789  0.459-  95 1.10
 344  0.263  0.711  0.960-  96 1.10
 345  0.737  0.289  0.041-  97 1.10
 346  0.737  0.711  0.540-  98 1.10
 347  0.263  0.289  0.460-  99 1.10
 348  0.863  0.108  0.932- 100 1.09
 349  0.136  0.892  0.068- 101 1.09
 350  0.137  0.108  0.568- 102 1.09
 351  0.863  0.892  0.432- 103 1.09
 352  0.363  0.608  0.932- 104 1.09
 353  0.637  0.392  0.068- 105 1.09
 354  0.637  0.608  0.568- 106 1.09
 355  0.363  0.392  0.432- 107 1.09
 356  0.820  0.931  0.931- 100 1.10
 357  0.180  0.069  0.069- 101 1.10
 358  0.181  0.931  0.569- 102 1.10
 359  0.820  0.070  0.431- 103 1.10
 360  0.320  0.431  0.931- 104 1.10
 361  0.679  0.569  0.069- 105 1.10
 362  0.680  0.431  0.569- 106 1.10
 363  0.320  0.569  0.431- 107 1.10
 364  0.919  0.953  0.945- 100 1.09
 365  0.081  0.047  0.056- 101 1.09
 366  0.082  0.954  0.555- 102 1.09
 367  0.919  0.046  0.444- 103 1.09
 368  0.419  0.453  0.945- 104 1.09
 369  0.581  0.546  0.056- 105 1.09
 370  0.581  0.453  0.555- 106 1.09
 371  0.419  0.546  0.445- 107 1.09
 372  0.831  0.049  0.030- 116 1.09
 373  0.169  0.950  0.971- 117 1.09
 374  0.168  0.048  0.471- 118 1.09
 375  0.831  0.950  0.529- 119 1.09
 376  0.332  0.549  0.029- 120 1.09
 377  0.669  0.452  0.971- 121 1.09
 378  0.668  0.549  0.471- 122 1.09
 379  0.331  0.453  0.529- 123 1.09
 380  0.915  0.199  0.060- 124 1.09
 381  0.085  0.800  0.940- 125 1.09
 382  0.085  0.198  0.440- 126 1.09
 383  0.915  0.800  0.560- 127 1.09
 384  0.416  0.700  0.060- 128 1.09
 385  0.585  0.302  0.940- 129 1.09
 386  0.584  0.700  0.440- 130 1.09
 387  0.415  0.302  0.560- 131 1.09
 388  0.018  0.361  0.040- 132 1.09
 389  0.982  0.640  0.960- 133 1.09
 390  0.982  0.360  0.460- 134 1.09
 391  0.019  0.640  0.539- 135 1.09
 392  0.519  0.861  0.040- 136 1.09
 393  0.482  0.140  0.960- 137 1.09
 394  0.481  0.861  0.461- 138 1.09
 395  0.518  0.140  0.540- 139 1.09
 396  0.034  0.359  0.988- 140 1.09
 397  0.965  0.643  0.012- 141 1.09
 398  0.966  0.359  0.512- 142 1.09
 399  0.035  0.642  0.487- 143 1.09
 400  0.534  0.859  0.987- 144 1.09
 401  0.466  0.141  0.012- 145 1.09
 402  0.465  0.858  0.513- 146 1.09
 403  0.534  0.142  0.488- 147 1.09
 404  0.953  0.204  0.957- 148 1.09
 405  0.047  0.797  0.044- 149 1.09
 406  0.048  0.205  0.544- 150 1.09
 407  0.953  0.797  0.456- 151 1.09
 408  0.453  0.704  0.956- 152 1.09
 409  0.548  0.295  0.044- 153 1.09
 410  0.547  0.703  0.544- 154 1.09
 411  0.453  0.296  0.456- 155 1.09
 412  0.634  0.920  0.883- 156 1.09
 413  0.366  0.080  0.117- 157 1.09
 414  0.365  0.920  0.617- 158 1.09
 415  0.635  0.080  0.383- 159 1.09
 416  0.134  0.420  0.883- 160 1.09
 417  0.865  0.581  0.117- 161 1.09
 418  0.867  0.421  0.617- 162 1.09
 419  0.135  0.580  0.383- 163 1.09
 420  0.634  0.095  0.866- 156 1.10
 421  0.367  0.904  0.134- 157 1.10
 422  0.365  0.095  0.633- 158 1.10
 423  0.634  0.904  0.366- 159 1.10
 424  0.134  0.595  0.866- 160 1.10
 425  0.865  0.406  0.134- 161 1.10
 426  0.867  0.597  0.633- 162 1.10
 427  0.134  0.404  0.366- 163 1.10
 428  0.616  0.935  0.845- 156 1.09
 429  0.384  0.065  0.155- 157 1.09
 430  0.383  0.935  0.655- 158 1.09
 431  0.617  0.065  0.345- 159 1.09
 432  0.116  0.434  0.845- 160 1.09
 433  0.883  0.566  0.155- 161 1.09
 434  0.884  0.437  0.655- 162 1.09
 435  0.117  0.564  0.345- 163 1.09
 436  0.536  0.003  0.914- 164 1.10
 437  0.465  0.997  0.086- 165 1.10
 438  0.463  0.004  0.585- 166 1.10
 439  0.536  0.997  0.415- 167 1.10
 440  0.036  0.503  0.914- 168 1.10
 441  0.963  0.497  0.085- 169 1.10
 442  0.966  0.502  0.585- 170 1.10
 443  0.036  0.497  0.415- 171 1.10
 444  0.450  0.096  0.901- 164 1.09
 445  0.551  0.904  0.099- 165 1.09
 446  0.550  0.096  0.599- 166 1.09
 447  0.450  0.904  0.401- 167 1.09
 448  0.949  0.596  0.900- 168 1.09
 449  0.050  0.404  0.099- 169 1.09
 450  0.052  0.595  0.599- 170 1.09
 451  0.950  0.404  0.401- 171 1.09
 452  0.544  0.179  0.898- 164 1.10
 453  0.456  0.821  0.102- 165 1.10
 454  0.455  0.180  0.602- 166 1.10
 455  0.544  0.821  0.398- 167 1.10
 456  0.044  0.679  0.898- 168 1.10
 457  0.955  0.321  0.102- 169 1.10
 458  0.957  0.679  0.602- 170 1.10
 459  0.044  0.321  0.398- 171 1.10
 460  0.521  0.201  0.846- 172 1.09
 461  0.480  0.800  0.154- 173 1.09
 462  0.477  0.200  0.653- 174 1.09
 463  0.521  0.800  0.346- 175 1.10
 464  0.022  0.700  0.846- 176 1.09
 465  0.977  0.301  0.154- 177 1.09
 466  0.978  0.703  0.653- 178 1.10
 467  0.022  0.300  0.346- 179 1.10
 468  0.427  0.121  0.849- 172 1.09
 469  0.574  0.880  0.151- 173 1.09
 470  0.572  0.121  0.651- 174 1.09
 471  0.427  0.880  0.349- 175 1.09
 472  0.927  0.620  0.849- 176 1.09
 473  0.072  0.381  0.151- 177 1.09
 474  0.073  0.624  0.650- 178 1.10
 475  0.927  0.380  0.349- 179 1.09
 476  0.495  0.041  0.826- 172 1.09
 477  0.506  0.959  0.174- 173 1.09
 478  0.504  0.041  0.674- 174 1.09
 479  0.495  0.959  0.326- 175 1.09
 480  0.996  0.540  0.826- 176 1.09
 481  0.003  0.460  0.174- 177 1.09
 482  0.005  0.545  0.674- 178 1.10
 483  0.995  0.459  0.326- 179 1.09
 484  0.367  0.962  0.875- 188 1.09
 485  0.634  0.039  0.125- 189 1.09
 486  0.632  0.962  0.625- 190 1.09
 487  0.367  0.039  0.375- 191 1.09
 488  0.867  0.462  0.875- 192 1.09
 489  0.132  0.539  0.125- 193 1.09
 490  0.134  0.462  0.625- 194 1.09
 491  0.867  0.539  0.375- 195 1.09
 492  0.297  0.730  0.877- 196 1.09
 493  0.704  0.270  0.123- 197 1.09
 494  0.703  0.731  0.623- 198 1.09
 495  0.297  0.271  0.377- 199 1.09
 496  0.796  0.231  0.877- 200 1.09
 497  0.203  0.770  0.123- 201 1.09
 498  0.204  0.230  0.623- 202 1.09
 499  0.797  0.770  0.377- 203 1.09
 500  0.368  0.493  0.873- 204 1.09
 501  0.632  0.507  0.127- 205 1.09
 502  0.631  0.494  0.627- 206 1.09
 503  0.369  0.507  0.373- 207 1.09
 504  0.868  0.994  0.873- 208 1.09
 505  0.131  0.007  0.127- 209 1.09
 506  0.132  0.994  0.627- 210 1.09
 507  0.869  0.007  0.373- 211 1.09
 508  0.512  0.496  0.867- 212 1.09
 509  0.488  0.504  0.133- 213 1.09
 510  0.487  0.496  0.633- 214 1.09
 511  0.514  0.504  0.367- 215 1.09
 512  0.012  0.996  0.867- 216 1.09
 513  0.987  0.004  0.133- 217 1.09
 514  0.987  0.998  0.633- 218 1.09
 515  0.013  0.004  0.367- 219 1.09
 516  0.583  0.726  0.864- 220 1.09
 517  0.417  0.274  0.136- 221 1.09
 518  0.416  0.725  0.635- 222 1.09
 519  0.584  0.274  0.365- 223 1.09
 520  0.083  0.225  0.864- 224 1.09
 521  0.916  0.775  0.135- 225 1.09
 522  0.917  0.228  0.636- 226 1.09
 523  0.084  0.774  0.365- 227 1.09
 524  0.588  0.344  0.782- 228 1.09
 525  0.412  0.656  0.218- 229 1.09
 526  0.411  0.342  0.718- 230 1.09
 527  0.588  0.656  0.282- 231 1.09
 528  0.088  0.839  0.784- 232 1.09
 529  0.913  0.156  0.218- 233 1.09
 530  0.911  0.844  0.717- 234 1.10
 531  0.087  0.156  0.282- 235 1.09
 532  0.581  0.529  0.794- 228 1.10
 533  0.419  0.472  0.206- 229 1.10
 534  0.418  0.527  0.706- 230 1.10
 535  0.581  0.472  0.295- 231 1.10
 536  0.081  0.025  0.795- 232 1.10
 537  0.920  0.972  0.205- 233 1.10
 538  0.918  0.028  0.705- 234 1.10
 539  0.080  0.972  0.295- 235 1.10
 540  0.603  0.386  0.820- 228 1.09
 541  0.398  0.614  0.180- 229 1.09
 542  0.396  0.385  0.680- 230 1.10
 543  0.602  0.614  0.320- 231 1.09
 544  0.105  0.886  0.821- 232 1.09
 545  0.898  0.114  0.180- 233 1.09
 546  0.895  0.886  0.680- 234 1.10
 547  0.102  0.114  0.320- 235 1.09
 548  0.684  0.422  0.749- 236 1.09
 549  0.316  0.579  0.251- 237 1.09
 550  0.318  0.423  0.751- 238 1.09
 551  0.684  0.579  0.250- 239 1.09
 552  0.184  0.918  0.750- 240 1.09
 553  0.816  0.079  0.250- 241 1.09
 554  0.816  0.922  0.750- 242 1.09
 555  0.183  0.079  0.250- 243 1.09
 556  0.767  0.531  0.761- 236 1.09
 557  0.234  0.468  0.239- 237 1.09
 558  0.234  0.528  0.739- 238 1.09
 559  0.766  0.468  0.261- 239 1.09
 560  0.265  0.030  0.761- 240 1.09
 561  0.734  0.968  0.239- 241 1.09
 562  0.734  0.032  0.739- 242 1.09
 563  0.266  0.968  0.261- 243 1.09
 564  0.670  0.605  0.762- 236 1.10
 565  0.331  0.396  0.238- 237 1.10
 566  0.330  0.606  0.738- 238 1.10
 567  0.669  0.395  0.262- 239 1.10
 568  0.168  0.101  0.762- 240 1.10
 569  0.831  0.895  0.238- 241 1.10
 570  0.831  0.105  0.738- 242 1.10
 571  0.168  0.896  0.262- 243 1.10
 572  0.686  0.659  0.812- 244 1.10
 573  0.314  0.342  0.187- 245 1.10
 574  0.312  0.657  0.688- 246 1.10
 575  0.686  0.342  0.313- 247 1.10
 576  0.187  0.156  0.813- 248 1.10
 577  0.814  0.842  0.187- 249 1.10
 578  0.812  0.156  0.687- 250 1.10
 579  0.186  0.842  0.313- 251 1.10
 580  0.784  0.591  0.812- 244 1.09
 581  0.216  0.409  0.188- 245 1.09
 582  0.214  0.587  0.688- 246 1.09
 583  0.784  0.409  0.312- 247 1.09
 584  0.285  0.090  0.811- 248 1.09
 585  0.716  0.909  0.188- 249 1.09
 586  0.714  0.089  0.688- 250 1.09
 587  0.284  0.909  0.312- 251 1.09
 588  0.719  0.517  0.837- 244 1.09
 589  0.282  0.484  0.163- 245 1.09
 590  0.282  0.514  0.663- 246 1.10
 591  0.718  0.484  0.337- 247 1.09
 592  0.220  0.015  0.837- 248 1.09
 593  0.782  0.984  0.163- 249 1.09
 594  0.779  0.014  0.663- 250 1.09
 595  0.218  0.984  0.337- 251 1.09
 596  0.854  0.427  0.791- 260 1.09
 597  0.147  0.573  0.209- 261 1.09
 598  0.146  0.425  0.711- 262 1.09
 599  0.852  0.573  0.291- 263 1.09
 600  0.353  0.927  0.790- 264 1.09
 601  0.648  0.072  0.209- 265 1.09
 602  0.646  0.926  0.710- 266 1.09
 603  0.352  0.072  0.291- 267 1.09
 604  0.935  0.211  0.798- 268 1.09
 605  0.066  0.790  0.203- 269 1.09
 606  0.064  0.210  0.704- 270 1.09
 607  0.934  0.789  0.297- 271 1.09
 608  0.436  0.712  0.796- 272 1.09
 609  0.566  0.289  0.203- 273 1.09
 610  0.564  0.710  0.703- 274 1.09
 611  0.434  0.289  0.297- 275 1.09
 612  0.874  0.970  0.809- 276 1.09
 613  0.126  0.030  0.191- 277 1.09
 614  0.124  0.971  0.691- 278 1.09
 615  0.874  0.030  0.309- 279 1.09
 616  0.377  0.471  0.809- 280 1.09
 617  0.626  0.530  0.191- 281 1.09
 618  0.624  0.469  0.691- 282 1.09
 619  0.374  0.530  0.309- 283 1.09
 620  0.730  0.953  0.813- 284 1.09
 621  0.270  0.047  0.187- 285 1.09
 622  0.268  0.954  0.686- 286 1.09
 623  0.730  0.047  0.313- 287 1.09
 624  0.234  0.452  0.814- 288 1.09
 625  0.770  0.547  0.187- 289 1.09
 626  0.768  0.452  0.687- 290 1.09
 627  0.230  0.547  0.313- 291 1.09
 628  0.647  0.168  0.805- 292 1.09
 629  0.353  0.832  0.194- 293 1.09
 630  0.351  0.168  0.693- 294 1.09
 631  0.647  0.832  0.306- 295 1.09
 632  0.149  0.665  0.807- 296 1.09
 633  0.853  0.332  0.194- 297 1.09
 634  0.852  0.666  0.694- 298 1.09
 635  0.147  0.332  0.306- 299 1.09
 

IMPORTANT INFORMATION: All symmetrisations will be switched off!
NOSYMM: (Re-)initialisation of all symmetry stuff for point group C_1.


----------------------------------------------------------------------------------------

                                     Primitive cell                                     

  volume of cell :    7407.0461

  direct lattice vectors                    reciprocal lattice vectors
    17.127099991  0.000000000  0.000000000     0.058387001  0.000000000  0.002656447
     0.000000000  9.178700447  0.000000000     0.000000000  0.108947885  0.000000000
    -2.143705240  0.000000000 47.117259241     0.000000000  0.000000000  0.021223645

  length of vectors
    17.127099991  9.178700447 47.166000366     0.058447400  0.108947885  0.021223645

  position of ions in fractional coordinates (direct lattice)
     0.985141747  0.481716492  0.752267670
     0.000379357  0.479278764  0.249922530
     0.498909076  0.020149440  0.750115332
     0.500270357  0.979548337  0.249954009
     0.723358942  0.596972391  0.912441394
     0.276713096  0.405521129  0.086913029
     0.276865976  0.597729152  0.587859617
     0.725036486  0.404245449  0.412930880
     0.222997306  0.096112238  0.912383247
     0.777172012  0.906660636  0.087039847
     0.777213977  0.096082292  0.587523850
     0.225309025  0.905640663  0.413055316
     0.911907624  0.306576352  0.274905708
     0.930164195  0.709248473  0.770836888
     0.088304924  0.306009963  0.224690499
     0.587586573  0.193290659  0.725377973
     0.411843468  0.806496219  0.274930844
     0.409781484  0.193332073  0.774966439
     0.588323475  0.806133526  0.224814762
     0.081535364  0.349606156  0.783544068
     0.926213217  0.641873317  0.215017361
     0.926337025  0.349668440  0.711093406
     0.074283140  0.641509307  0.284920269
     0.574200374  0.858456677  0.784908985
     0.426260438  0.141941144  0.215007039
     0.423384314  0.856448591  0.715946415
     0.573810852  0.141943186  0.284958641
     0.657588484  0.385442730  0.886434240
     0.342733609  0.616583422  0.112581499
     0.341653075  0.387490645  0.614345045
     0.659823563  0.613335604  0.387547399
     0.157454737  0.884212881  0.886277708
     0.841523911  0.115723476  0.112793452
     0.842659293  0.884198155  0.613742697
     0.159421920  0.112766091  0.387435656
     0.790121486  0.747606903  0.876132855
     0.208474980  0.255517961  0.122639598
     0.209246345  0.745847525  0.624254147
     0.789545814  0.252372730  0.377300271
     0.289977720  0.247366904  0.876271586
     0.710211276  0.754538578  0.121800362
     0.709898499  0.247278972  0.623574775
     0.289926101  0.755164986  0.377543907
     0.633295076  0.766038465  0.937213252
     0.367058777  0.235165515  0.062334444
     0.363814976  0.769108531  0.562924964
     0.636428991  0.236363204  0.437476988
     0.133173927  0.265777813  0.937191359
     0.864100814  0.735964058  0.062354965
     0.867095301  0.266730297  0.563023781
     0.135835698  0.738029903  0.437103133
     0.822349418  0.498016400  0.948318289
     0.179199518  0.504135259  0.050150869
     0.179508237  0.497036596  0.552161943
     0.820106059  0.505296400  0.449256199
     0.321805033  0.997628911  0.948399131
     0.679873554  0.003684056  0.051076049
     0.679440000  0.996608826  0.551225663
     0.321398380  0.004681563  0.449194342
     0.830771222  0.026004515  0.972046616
     0.168929844  0.974160271  0.028230869
     0.169324489  0.025982187  0.528069062
     0.831129758  0.974170687  0.471785548
     0.331132108  0.525833419  0.971944250
     0.669017432  0.474167404  0.028266141
     0.668782200  0.525755543  0.528040704
     0.330825946  0.474535855  0.471906499
     0.521866334  0.002784413  0.869622962
     0.478781897  0.997383538  0.130374121
     0.477216594  0.002800616  0.630181801
     0.522308703  0.997373325  0.369725319
     0.021737128  0.502451147  0.869413801
     0.977037637  0.497789299  0.130315256
     0.979043408  0.504105242  0.630251929
     0.022241237  0.497160885  0.369725740
     0.696243776  0.448969567  0.794043962
     0.304065268  0.551494266  0.205905773
     0.303045863  0.447741996  0.706181695
     0.695789317  0.551271915  0.294191838
     0.196716549  0.946438229  0.794249710
     0.804320459  0.051239912  0.205733827
     0.802760372  0.947640590  0.705708274
     0.195562093  0.051389403  0.294273467
     0.817576512  0.877907683  0.984823602
     0.182096882  0.122279881  0.015493649
     0.182310928  0.877745667  0.515335683
     0.818208569  0.122390437  0.484554688
     0.318045880  0.377741766  0.984724424
     0.682124593  0.622398797  0.015569659
     0.681930837  0.377669668  0.515264567
     0.317761359  0.622816189  0.484600311
     0.752928337  0.104051512  0.968879634
     0.246898531  0.896543299  0.031503202
     0.247231782  0.103950194  0.531199718
     0.753131862  0.896696539  0.468590866
     0.253206737  0.603591149  0.968792753
     0.746951990  0.396448336  0.031553625
     0.746675355  0.603635873  0.531167963
     0.252906645  0.396744356  0.468730251
     0.860570091  0.003553722  0.942830870
     0.138877292  0.996551041  0.057436173
     0.139679889  0.003483867  0.557322466
     0.860934164  0.996645031  0.442546229
     0.360952836  0.503473565  0.942715560
     0.638841577  0.496405049  0.057458840
     0.639007426  0.503404696  0.557281546
     0.360758334  0.496600381  0.442664473
     0.886001136  0.115502484  0.990822740
     0.113913400  0.884508144  0.009405285
     0.114139729  0.115469390  0.509285922
     0.886262202  0.884360118  0.490541964
     0.386331535  0.615550519  0.990697341
     0.614144961  0.384622015  0.009393658
     0.613519609  0.615403973  0.509289336
     0.385891620  0.385173349  0.490767100
     0.876100151  0.114677157  0.020038387
     0.124134996  0.884653577  0.980200600
     0.123774601  0.114202631  0.480055727
     0.876351352  0.884425378  0.519757686
     0.376539217  0.615065583  0.019917196
     0.624021520  0.385850650  0.980168847
     0.623331347  0.615018637  0.480070731
     0.375978812  0.386325979  0.519983918
     0.923667418  0.202195346  0.037743289
     0.076499156  0.797097688  0.962533091
     0.076090164  0.201647087  0.462386091
     0.924168881  0.796902867  0.537371619
     0.424176998  0.702880499  0.037539884
     0.576424228  0.298424790  0.962461633
     0.575697869  0.702968037  0.462474851
     0.423581919  0.298850785  0.537679737
     0.980266446  0.291481369  0.026293687
     0.019457738  0.708766879  0.973973724
     0.019588114  0.291106108  0.473857001
     0.981142306  0.708625128  0.525859725
     0.480809743  0.791830633  0.026017985
     0.519758436  0.209093661  0.973868169
     0.519020133  0.791791966  0.474003017
     0.480217286  0.209556448  0.526239708
     0.989692510  0.290787617  0.997079850
     0.009700988  0.710193216  0.003163790
     0.010482513  0.290942361  0.503086318
     0.990536132  0.709988527  0.496637697
     0.490129245  0.790691908  0.996801180
     0.510391042  0.209350047  0.003075365
     0.509557228  0.790294913  0.503220299
     0.489663958  0.210078086  0.497027972
     0.943132664  0.202165818  0.979150314
     0.056403017  0.798734509  0.021058449
     0.057281579  0.202613569  0.520984668
     0.943615520  0.798525672  0.478816251
     0.443459170  0.701868440  0.978959469
     0.557081205  0.297693588  0.021008697
     0.556303539  0.701471509  0.521040861
     0.443058247  0.298584626  0.479109448
     0.608093080  0.985934936  0.865617613
     0.392499856  0.013938769  0.134416962
     0.390943545  0.985855457  0.634042215
     0.608488655  0.013785248  0.365649163
     0.108030141  0.485328829  0.865503834
     0.890811686  0.514860326  0.134278865
     0.892601034  0.487480056  0.634002778
     0.108412583  0.513696418  0.365667809
     0.511777808  0.076048612  0.897937990
     0.488904561  0.924146765  0.102071058
     0.487514754  0.076461350  0.601915687
     0.512165619  0.923942349  0.398006401
     0.011575913  0.576471892  0.897677635
     0.987277038  0.424144079  0.102065183
     0.989638140  0.576206846  0.601846587
     0.012082843  0.423671296  0.397999235
     0.488578170  0.098187066  0.845968352
     0.512326592  0.902199440  0.154059777
     0.510270280  0.097963353  0.653913801
     0.488715340  0.902325923  0.346049034
     0.988676190  0.597186123  0.845609140
     0.010228914  0.402910922  0.154088578
     0.012017898  0.601112405  0.653732914
     0.988683217  0.402171448  0.346044124
     0.479753702  0.858921100  0.869318772
     0.520830622  0.141367745  0.130612849
     0.519298958  0.858957251  0.630474924
     0.480500418  0.141502791  0.369482690
     0.979480092  0.358665738  0.869249041
     0.019138654  0.641555060  0.130538274
     0.021135286  0.359974223  0.630733084
     0.980437119  0.641285638  0.369478975
     0.399264641  0.860005448  0.872780708
     0.601323297  0.140433577  0.127125835
     0.599887365  0.860199672  0.627182241
     0.399947411  0.140673562  0.372839237
     0.899029359  0.360000429  0.872806802
     0.099703595  0.640291026  0.127169596
     0.101609091  0.360546460  0.627255128
     0.899893593  0.640423917  0.372846190
     0.359385445  0.728095326  0.874153146
     0.641191410  0.272362557  0.125838832
     0.639910834  0.728412776  0.625933691
     0.360120207  0.272632569  0.374101776
     0.859100807  0.228196122  0.874240151
     0.139722087  0.772075088  0.125912804
     0.141188742  0.228284428  0.625862207
     0.860054022  0.772366267  0.374087363
     0.399622422  0.596547064  0.872140271
     0.600947524  0.403877421  0.127951155
     0.599693078  0.596737067  0.627912614
     0.400531081  0.403974601  0.372044308
     0.899233663  0.096552074  0.872172158
     0.099517515  0.903713926  0.127968494
     0.100654535  0.097004381  0.627866763
     0.900442988  0.903726627  0.372003368
     0.479680245  0.597415654  0.868309816
     0.520832518  0.402875452  0.131725615
     0.519548723  0.597449908  0.631520797
     0.480672838  0.402886710  0.368386285
     0.979279602  0.097203690  0.868294124
     0.019375090  0.902990592  0.131619380
     0.020570461  0.098511056  0.631711456
     0.980578135  0.902640320  0.368348766
     0.520444414  0.728709415  0.866799686
     0.480094936  0.271506357  0.133164741
     0.478626162  0.728695013  0.632893451
     0.521413219  0.271489290  0.367014643
     0.020110435  0.228396854  0.866747723
     0.978478046  0.771772012  0.132988256
     0.980124753  0.230082602  0.633240694
     0.021328235  0.771273274  0.367006319
     0.610439497  0.423741684  0.797903590
     0.389790910  0.576974576  0.202087516
     0.388797468  0.422013435  0.702181323
     0.610073045  0.576697472  0.298047225
     0.111330194  0.920898274  0.798681072
     0.890045447  0.076725865  0.201912435
     0.888215674  0.922750463  0.701420339
     0.109856126  0.076830536  0.298126476
     0.705062066  0.506058672  0.764278541
     0.295404668  0.494074169  0.235671659
     0.295170920  0.506028983  0.735878001
     0.704460554  0.493948504  0.264421767
     0.204041979  0.003195093  0.764402583
     0.795555083  0.993987827  0.235511625
     0.794904689  0.005898899  0.735438539
     0.204202487  0.994295610  0.264490414
     0.723773413  0.562587842  0.815463134
     0.276540550  0.438193973  0.184401636
     0.275585892  0.560176407  0.684476782
     0.723434539  0.438013198  0.315694712
     0.224736720  0.060738241  0.815511281
     0.776750803  0.937899096  0.184221204
     0.774491340  0.060165572  0.684152819
     0.223127676  0.938018164  0.315769556
     0.744543307  0.313182290  0.798347849
     0.255570023  0.687167616  0.201673590
     0.254282173  0.312262599  0.702128090
     0.744221119  0.686973596  0.298410666
     0.245771923  0.811367570  0.798356165
     0.755908277  0.186950309  0.201520261
     0.754448797  0.811518512  0.701829200
     0.244055071  0.186947284  0.298488175
     0.825447896  0.324150358  0.796154271
     0.174889135  0.676242682  0.204412352
     0.173715705  0.322652997  0.705234528
     0.824889183  0.676000256  0.295638558
     0.326238448  0.823471995  0.795322223
     0.675232922  0.175800161  0.204198185
     0.673838718  0.822567250  0.704664845
     0.324729468  0.175803151  0.295789175
     0.871770797  0.200319928  0.799965268
     0.128472310  0.800005272  0.200696296
     0.127045145  0.199579622  0.701197579
     0.871331016  0.799735434  0.299325318
     0.373411823  0.700681613  0.798979106
     0.628796478  0.299561566  0.200572501
     0.627246044  0.699055809  0.700955089
     0.371179018  0.299560672  0.299422528
     0.837810042  0.066499072  0.806175784
     0.162120482  0.933494063  0.193998758
     0.160519597  0.066800576  0.694003430
     0.837714074  0.933291008  0.305998738
     0.340659327  0.566896600  0.805985100
     0.662399214  0.433241391  0.193990453
     0.660777804  0.565450321  0.694202324
     0.337600414  0.433227784  0.306036461
     0.757190859  0.057123283  0.808400792
     0.242560153  0.942826754  0.191336177
     0.240850729  0.057359833  0.691046020
     0.757286401  0.942595429  0.308704781
     0.260369960  0.556216230  0.808964629
     0.742843232  0.442666702  0.191344787
     0.741217024  0.555821928  0.691512386
     0.257162162  0.442700742  0.308678773
     0.709937768  0.180118331  0.804343336
     0.289977541  0.819915127  0.195313203
     0.288335928  0.180005121  0.695225413
     0.709832191  0.819725953  0.304744342
     0.212196507  0.678191635  0.804975496
     0.790321830  0.319822721  0.195282266
     0.788731590  0.678659944  0.695481498
     0.209693050  0.319867257  0.304730846
     0.779785507  0.816221933  0.969808796
     0.220031684  0.183760823  0.030491954
     0.219924594  0.815891645  0.530386243
     0.780555882  0.184244538  0.469527243
     0.280348688  0.315963489  0.969701944
     0.719664990  0.684183564  0.030655884
     0.719812421  0.316039080  0.530252722
     0.279978214  0.684387535  0.469566535
     0.788923884  0.890499397  0.004908668
     0.210664026  0.109823309  0.995396777
     0.211075668  0.890100088  0.495273781
     0.789484838  0.109937477  0.504622873
     0.289278957  0.390344045  0.004784925
     0.711054574  0.610095082  0.995538554
     0.710471145  0.390291847  0.495160747
     0.289176785  0.610508080  0.504701726
     0.874040893  0.824065716  0.988311327
     0.125659193  0.176290893  0.012068737
     0.125746646  0.824326895  0.511817607
     0.874784392  0.175827718  0.488052101
     0.374543870  0.324040220  0.988247724
     0.625608154  0.675944040  0.012000959
     0.625477865  0.323725812  0.511818072
     0.374267167  0.676537807  0.488049990
     0.728672065  0.113065906  0.989884568
     0.271294459  0.887138392  0.010535604
     0.271348125  0.112975500  0.510175051
     0.728848012  0.887364874  0.489579884
     0.228977513  0.612642542  0.989801320
     0.771319085  0.387129325  0.010576378
     0.770856288  0.612724748  0.510154848
     0.228611546  0.387738606  0.489731303
     0.713912910  0.038180559  0.954960791
     0.285718689  0.962969102  0.045397455
     0.286256300  0.037694247  0.545063782
     0.714290713  0.963281474  0.454726288
     0.214237972  0.537472878  0.954896681
     0.785757645  0.462935554  0.045446309
     0.785698341  0.537665911  0.545071107
     0.214018900  0.462933909  0.454811063
     0.762969024  0.211840596  0.959748976
     0.237010248  0.788846093  0.040701314
     0.237266096  0.211746244  0.540365882
     0.762909147  0.788964613  0.459370203
     0.263123835  0.711369969  0.959633923
     0.737013667  0.288706755  0.040741167
     0.736704643  0.711429806  0.540311957
     0.262799452  0.288927413  0.459583512
     0.863144712  0.108287885  0.931891788
     0.136452940  0.891863255  0.068402927
     0.137396031  0.108229483  0.568266488
     0.863105730  0.892003695  0.431557557
     0.363416298  0.608238882  0.931780334
     0.636643750  0.391692560  0.068427539
     0.636518047  0.608133919  0.568215876
     0.363042127  0.391783694  0.431740355
     0.819600202  0.931221345  0.931190664
     0.179674872  0.069148665  0.069101019
     0.180651771  0.930863042  0.568890434
     0.820148839  0.069532886  0.430957644
     0.320006082  0.431071932  0.931081776
     0.679423025  0.569432743  0.069126082
     0.679986571  0.431051574  0.568910302
     0.319983161  0.569242408  0.431005973
     0.918522170  0.953214710  0.944704600
     0.080847274  0.046567944  0.055525309
     0.081621651  0.953551760  0.555493021
     0.919053974  0.046312044  0.444411036
     0.418944234  0.453306307  0.944589112
     0.580695442  0.545895763  0.055508688
     0.581035508  0.453136258  0.555430349
     0.418848216  0.546425071  0.444545355
     0.831379263  0.048613217  0.029519960
     0.169122906  0.950237241  0.970771738
     0.168295624  0.047729888  0.470564787
     0.831431203  0.949999207  0.529224699
     0.331836977  0.549092318  0.029403567
     0.668669313  0.452277346  0.970764576
     0.667962124  0.549084347  0.470515535
     0.331320752  0.452538861  0.529473971
     0.914803766  0.198786584  0.060491717
     0.085425734  0.799671788  0.939783562
     0.084662528  0.197928146  0.439622752
     0.915427334  0.799564449  0.560129102
     0.415530027  0.699733250  0.060304197
     0.585102652  0.301900176  0.939707666
     0.584439933  0.700012198  0.439717366
     0.414832748  0.302298737  0.560434455
     0.017880120  0.360781236  0.039839476
     0.981761057  0.639662201  0.960412312
     0.981796614  0.360116298  0.460314522
     0.019058960  0.639611914  0.539369930
     0.518565903  0.861004753  0.039544872
     0.482067388  0.140087317  0.960279931
     0.481305723  0.861220217  0.460511466
     0.517834410  0.140305175  0.539800196
     0.033912747  0.359101491  0.987810853
     0.965127471  0.642850577  0.012459629
     0.966372568  0.359385109  0.512386211
     0.034981031  0.642455865  0.487302676
     0.534469388  0.858593774  0.987488408
     0.466128325  0.141206571  0.012357625
     0.465158549  0.857892449  0.512567931
     0.533894096  0.141795319  0.487759609
     0.952638556  0.204319675  0.956532723
     0.046605279  0.797393523  0.043653200
     0.048145044  0.205203816  0.543622480
     0.953049876  0.796937099  0.456198474
     0.452945578  0.703582228  0.956346430
     0.547632426  0.295336701  0.043624033
     0.546689065  0.702976403  0.543645985
     0.452531503  0.296354912  0.456492331
     0.634121032  0.919986209  0.882917332
     0.366342755  0.079918992  0.117149740
     0.365132225  0.919896276  0.616700594
     0.634815004  0.079682787  0.382900222
     0.133871386  0.419511508  0.882856635
     0.864796164  0.580789006  0.116981046
     0.867096646  0.421198735  0.616655027
     0.134658960  0.579719671  0.382920454
     0.633735134  0.095311422  0.866274014
     0.366959622  0.904487411  0.133754843
     0.365356217  0.095330838  0.633356069
     0.634035092  0.904306017  0.366259042
     0.133753058  0.594659199  0.866152283
     0.865133244  0.405509834  0.133660554
     0.867003989  0.596913216  0.633145305
     0.133986645  0.404250432  0.366306388
     0.616291673  0.935112835  0.844977958
     0.384349787  0.064551488  0.155083443
     0.382591487  0.934796883  0.654650782
     0.616546917  0.064629449  0.344999794
     0.116393842  0.434080753  0.844910565
     0.882679032  0.565814943  0.154911133
     0.883828281  0.436978761  0.654632197
     0.116510997  0.564449728  0.345010363
     0.535867679  0.002845470  0.914473421
     0.464853288  0.997349451  0.085531996
     0.463325045  0.003509226  0.585347666
     0.536407281  0.996843956  0.414569373
     0.035586113  0.503470833  0.914257742
     0.963283796  0.497167455  0.085477771
     0.965525793  0.502404131  0.585419312
     0.036297383  0.496582452  0.414564158
     0.449576511  0.095732217  0.900714694
     0.551113430  0.904399862  0.099314978
     0.549758827  0.095858547  0.599185600
     0.449941619  0.904458913  0.400790406
     0.949391544  0.596290147  0.900435580
     0.049510390  0.404323479  0.099372266
     0.051900089  0.595319528  0.599087167
     0.949865289  0.404055845  0.400772646
     0.544214916  0.179023319  0.897865092
     0.456484073  0.821164168  0.102126704
     0.455183981  0.179585146  0.602063050
     0.544489328  0.820822752  0.397900913
     0.044091684  0.679332243  0.897548342
     0.954828328  0.321182304  0.102178089
     0.957304966  0.679332764  0.601715112
     0.044472405  0.320605201  0.397878523
     0.521484192  0.200507572  0.846459836
     0.479519227  0.799786056  0.153639835
     0.477329729  0.200240534  0.653416293
     0.521497049  0.799858535  0.346476941
     0.021552356  0.699538275  0.846025341
     0.977379065  0.300572944  0.153669510
     0.978463865  0.702755730  0.652978827
     0.021525894  0.299781443  0.346449370
     0.426952420  0.120544150  0.849353281
     0.573944352  0.880090382  0.150628719
     0.571907247  0.120538485  0.650573267
     0.427106346  0.880176574  0.349492297
     0.927005731  0.619703680  0.848908859
     0.071872252  0.380560278  0.150771167
     0.073493838  0.624408533  0.650073861
     0.927081799  0.379831740  0.349483692
     0.495395015  0.041334107  0.825831541
     0.505533848  0.959190388  0.174183353
     0.503525947  0.040834941  0.674023255
     0.495463257  0.959273604  0.325913535
     0.995738121  0.539885878  0.825534382
[...]
  197       -0.000  -0.000   0.000  -0.000
  198        0.000   0.000   0.000   0.000
  199        0.000   0.000   0.000   0.000
  200        0.000   0.000   0.000   0.000
  201        0.000   0.000   0.000   0.000
  202        0.000   0.000   0.000   0.000
  203        0.000   0.000   0.000   0.000
  204        0.000   0.001   0.000   0.001
  205       -0.000  -0.001   0.000  -0.001
  206        0.000   0.001   0.000   0.001
  207        0.000   0.001   0.000   0.001
  208        0.000   0.001   0.000   0.001
  209        0.000   0.001   0.000   0.001
  210        0.000   0.001   0.000   0.001
  211        0.000   0.001   0.000   0.001
  212        0.000   0.000   0.000   0.000
  213        0.000   0.000   0.000   0.000
  214        0.000   0.000   0.000   0.000
  215        0.000   0.000   0.000   0.000
  216        0.000  -0.000   0.000   0.000
  217        0.000   0.000   0.000   0.000
  218        0.000   0.000   0.000   0.000
  219        0.000   0.000   0.000   0.000
  220        0.000   0.000   0.000   0.000
  221        0.000   0.000   0.000   0.000
  222        0.000   0.000   0.000   0.000
  223        0.000   0.000   0.000   0.000
  224        0.000   0.000   0.000   0.000
  225       -0.000  -0.000   0.000  -0.000
  226        0.000  -0.000   0.000   0.000
  227        0.000   0.000   0.000   0.000
  228       -0.000  -0.000   0.000  -0.000
  229        0.000   0.000   0.000   0.000
  230       -0.000  -0.000   0.000  -0.000
  231        0.000   0.000   0.000   0.000
  232       -0.000  -0.000   0.000  -0.001
  233        0.000   0.000   0.000   0.001
  234       -0.001   0.000   0.000  -0.000
  235        0.000   0.000   0.000   0.000
  236       -0.000  -0.001   0.000  -0.001
  237        0.000   0.001   0.000   0.001
  238       -0.001  -0.002   0.000  -0.002
  239        0.000   0.001   0.000   0.001
  240       -0.000  -0.001   0.000  -0.001
  241        0.000   0.001   0.000   0.001
  242       -0.000   0.000   0.000   0.000
  243        0.000   0.001   0.000   0.001
  244       -0.000  -0.000   0.000  -0.001
  245        0.000   0.001   0.000   0.001
  246       -0.000  -0.001   0.000  -0.001
  247        0.000   0.001   0.000   0.001
  248       -0.000  -0.000   0.000  -0.000
  249        0.000   0.001   0.000   0.001
  250        0.000  -0.000   0.000  -0.000
  251        0.000   0.001   0.000   0.001
  252       -0.000  -0.004   0.000  -0.004
  253        0.000   0.000   0.000   0.000
  254        0.000  -0.000   0.000  -0.000
  255        0.000   0.000   0.000   0.000
  256       -0.000  -0.001   0.000  -0.001
  257        0.000   0.000   0.000   0.000
  258       -0.000  -0.000   0.000  -0.000
  259        0.000   0.000   0.000   0.000
  260       -0.001  -0.001   0.000  -0.002
  261        0.000   0.000   0.000   0.000
  262       -0.002  -0.004   0.000  -0.005
  263        0.000   0.000   0.000   0.000
  264        0.000   0.000   0.000   0.000
  265        0.000   0.000   0.000   0.000
  266       -0.000  -0.000   0.000  -0.000
  267        0.000   0.000   0.000   0.000
  268       -0.000   0.000   0.000  -0.000
  269        0.000   0.000   0.000   0.000
  270        0.000  -0.000   0.000  -0.000
  271        0.000   0.000   0.000   0.000
  272       -0.000  -0.001   0.000  -0.001
  273        0.000   0.000   0.000   0.000
  274       -0.000  -0.000   0.000  -0.000
  275        0.000   0.000   0.000   0.000
  276       -0.000  -0.003   0.000  -0.003
  277        0.000   0.000   0.000   0.000
  278       -0.000  -0.001   0.000  -0.001
  279        0.000   0.000   0.000   0.000
  280       -0.000  -0.000   0.000  -0.000
  281        0.000   0.000   0.000   0.000
  282       -0.000  -0.000   0.000  -0.000
  283        0.000   0.000   0.000   0.000
  284       -0.000  -0.002   0.000  -0.002
  285        0.000   0.000   0.000   0.000
  286       -0.000  -0.000   0.000  -0.000
  287        0.000   0.000   0.000   0.000
  288        0.000  -0.000   0.000  -0.000
  289        0.000   0.000   0.000   0.000
  290        0.000   0.000   0.000   0.000
  291        0.000   0.000   0.000   0.000
  292        0.000   0.000   0.000   0.000
  293       -0.000   0.000   0.000   0.000
  294       -0.000   0.000   0.000  -0.000
  295       -0.000   0.000   0.000   0.000
  296       -0.000  -0.000   0.000  -0.000
  297       -0.000  -0.000   0.000  -0.000
  298       -0.000  -0.000   0.000  -0.000
  299       -0.000   0.000   0.000   0.000
  300        0.000  -0.000   0.000   0.000
  301        0.000  -0.000   0.000   0.000
  302        0.000  -0.000   0.000   0.000
  303        0.000  -0.000   0.000   0.000
  304        0.000  -0.000   0.000   0.000
  305        0.000  -0.000   0.000  -0.000
  306        0.000  -0.000   0.000   0.000
  307        0.000  -0.000   0.000   0.000
  308       -0.000   0.000   0.000  -0.000
  309        0.000   0.000   0.000   0.000
  310        0.000   0.000   0.000   0.000
  311        0.000   0.000   0.000   0.000
  312        0.000   0.000   0.000   0.000
  313        0.000   0.000   0.000   0.000
  314        0.000   0.000   0.000   0.000
  315        0.000   0.000   0.000   0.000
  316        0.000  -0.000   0.000   0.000
  317        0.000   0.000   0.000   0.000
  318        0.000   0.000   0.000   0.000
  319        0.000   0.000   0.000   0.000
  320        0.000   0.000   0.000   0.000
  321       -0.000  -0.000   0.000  -0.000
  322        0.000   0.000   0.000   0.000
  323        0.000   0.000   0.000   0.000
  324        0.000  -0.000   0.000  -0.000
  325        0.000   0.000   0.000   0.000
  326       -0.000   0.000   0.000   0.000
  327        0.000   0.000   0.000   0.000
  328       -0.000   0.000   0.000   0.000
  329       -0.000   0.000   0.000   0.000
  330       -0.000   0.000   0.000   0.000
  331        0.000   0.000   0.000   0.000
  332       -0.000   0.000   0.000   0.000
  333       -0.000   0.000   0.000   0.000
  334       -0.000   0.000   0.000   0.000
  335       -0.000   0.000   0.000   0.000
  336       -0.000   0.000   0.000   0.000
  337       -0.000   0.000   0.000   0.000
  338       -0.000   0.000   0.000   0.000
  339       -0.000   0.000   0.000   0.000
  340       -0.000   0.000   0.000   0.000
  341        0.000   0.000   0.000   0.000
  342        0.000   0.000   0.000   0.000
  343        0.000   0.000   0.000   0.000
  344        0.000   0.000   0.000   0.000
  345        0.000  -0.000   0.000  -0.000
  346        0.000   0.000   0.000   0.000
  347        0.000   0.000   0.000   0.000
  348        0.000   0.000   0.000   0.000
  349        0.000   0.000   0.000   0.000
  350        0.000   0.000   0.000   0.000
  351        0.000   0.000   0.000   0.000
  352        0.000   0.000   0.000   0.000
  353        0.000  -0.000   0.000   0.000
  354        0.000   0.000   0.000   0.000
  355        0.000   0.000   0.000   0.000
  356        0.000  -0.000   0.000   0.000
  357        0.000  -0.000   0.000   0.000
  358        0.000  -0.000   0.000   0.000
  359        0.000  -0.000   0.000   0.000
  360        0.000  -0.000   0.000   0.000
  361       -0.000  -0.000   0.000  -0.000
  362        0.000  -0.000   0.000   0.000
  363        0.000  -0.000   0.000   0.000
  364        0.000   0.000   0.000   0.000
  365        0.000  -0.000   0.000   0.000
  366        0.000   0.000   0.000   0.000
  367        0.000   0.000   0.000   0.000
  368        0.000   0.000   0.000   0.000
  369       -0.000  -0.000   0.000  -0.000
  370        0.000   0.000   0.000   0.000
  371        0.000   0.000   0.000   0.000
  372        0.000  -0.000   0.000  -0.000
  373        0.000   0.000   0.000   0.000
  374        0.000   0.000   0.000   0.000
  375        0.000   0.000   0.000   0.000
  376        0.000   0.000   0.000   0.000
  377        0.000   0.000   0.000   0.000
  378        0.000   0.000   0.000   0.000
  379        0.000   0.000   0.000   0.000
  380       -0.000   0.000   0.000  -0.000
  381        0.000   0.000   0.000   0.000
  382        0.000   0.000   0.000   0.000
  383        0.000   0.000   0.000   0.000
  384       -0.000   0.000   0.000   0.000
  385        0.000   0.000   0.000   0.000
  386        0.000   0.000   0.000   0.000
  387        0.000   0.000   0.000   0.000
  388       -0.000   0.000   0.000   0.000
  389       -0.000   0.000   0.000   0.000
  390        0.000   0.000   0.000   0.000
  391        0.000   0.000   0.000   0.000
  392        0.000  -0.000   0.000  -0.000
  393        0.000   0.000   0.000   0.000
  394        0.000   0.000   0.000   0.000
  395        0.000   0.000   0.000   0.000
  396        0.000   0.000   0.000   0.000
  397        0.000  -0.000   0.000   0.000
  398        0.000   0.000   0.000   0.000
  399        0.000   0.000   0.000   0.000
  400       -0.000   0.000   0.000   0.000
  401        0.000   0.000   0.000   0.000
  402        0.000   0.000   0.000   0.000
  403        0.000   0.000   0.000   0.000
  404        0.000   0.000   0.000   0.000
  405        0.000  -0.000   0.000   0.000
  406        0.000   0.000   0.000   0.000
  407        0.000   0.000   0.000   0.000
  408        0.000   0.000   0.000   0.000
  409        0.000   0.000   0.000   0.000
  410        0.000   0.000   0.000   0.000
  411        0.000   0.000   0.000   0.000
  412        0.000   0.000   0.000   0.000
  413        0.000   0.000   0.000   0.000
  414        0.000   0.000   0.000   0.000
  415        0.000   0.000   0.000   0.000
  416        0.000   0.000   0.000   0.000
  417        0.000   0.000   0.000   0.000
  418       -0.000   0.000   0.000   0.000
  419        0.000   0.000   0.000   0.000
  420       -0.000   0.000   0.000   0.000
  421       -0.000   0.000   0.000   0.000
  422       -0.000   0.000   0.000   0.000
  423       -0.000   0.000   0.000   0.000
  424       -0.000   0.000   0.000   0.000
  425       -0.000  -0.000   0.000  -0.000
  426       -0.000   0.000   0.000   0.000
  427       -0.000   0.000   0.000   0.000
  428        0.000  -0.000   0.000  -0.000
  429       -0.000   0.000   0.000   0.000
  430        0.000  -0.000   0.000  -0.000
  431       -0.000   0.000   0.000   0.000
  432       -0.000   0.000   0.000   0.000
  433        0.000   0.000   0.000   0.000
  434       -0.000   0.000   0.000   0.000
  435       -0.000   0.000   0.000   0.000
  436       -0.000   0.000   0.000   0.000
  437       -0.000   0.000   0.000   0.000
  438       -0.000   0.000   0.000   0.000
  439       -0.000   0.000   0.000   0.000
  440       -0.000   0.000   0.000   0.000
  441        0.000  -0.000   0.000  -0.000
  442       -0.000   0.000   0.000   0.000
  443       -0.000   0.000   0.000   0.000
  444        0.000   0.000   0.000   0.000
  445        0.000   0.000   0.000   0.000
  446        0.000   0.000   0.000   0.000
  447        0.000   0.000   0.000   0.000
  448        0.000   0.000   0.000   0.000
  449        0.000   0.000   0.000   0.000
  450        0.000   0.000   0.000   0.000
  451        0.000   0.000   0.000   0.000
  452       -0.000   0.000   0.000   0.000
  453       -0.000   0.000   0.000   0.000
  454       -0.000   0.000   0.000   0.000
  455       -0.000   0.000   0.000   0.000
  456       -0.000   0.000   0.000   0.000
  457        0.000  -0.000   0.000  -0.000
  458       -0.000   0.000   0.000   0.000
  459       -0.000   0.000   0.000   0.000
  460       -0.000   0.000   0.000   0.000
  461       -0.000   0.000   0.000   0.000
  462       -0.000   0.000   0.000   0.000
  463       -0.000   0.000   0.000   0.000
  464        0.000   0.000   0.000   0.000
  465       -0.000   0.000   0.000   0.000
  466        0.000  -0.000   0.000   0.000
  467       -0.000   0.000   0.000   0.000
  468       -0.000   0.000   0.000   0.000
  469       -0.000   0.000   0.000   0.000
  470       -0.000   0.000   0.000   0.000
  471       -0.000   0.000   0.000   0.000
  472       -0.000   0.000   0.000   0.000
  473       -0.000   0.000   0.000   0.000
  474        0.000   0.000   0.000   0.000
  475       -0.000   0.000   0.000   0.000
  476       -0.000   0.000   0.000   0.000
  477        0.000  -0.000   0.000   0.000
  478        0.000   0.000   0.000   0.000
  479        0.000  -0.000   0.000   0.000
  480        0.000  -0.000   0.000  -0.000
  481        0.000  -0.000   0.000   0.000
  482       -0.000  -0.000   0.000  -0.000
  483        0.000  -0.000   0.000   0.000
  484        0.000   0.000   0.000   0.000
  485        0.000  -0.000   0.000  -0.000
  486        0.000   0.000   0.000   0.000
  487        0.000   0.000   0.000   0.000
  488        0.000   0.000   0.000   0.000
  489        0.000   0.000   0.000   0.000
  490        0.000   0.000   0.000   0.000
  491        0.000   0.000   0.000   0.000
  492        0.000   0.000   0.000   0.000
  493        0.000  -0.000   0.000  -0.000
  494        0.000   0.000   0.000   0.000
  495        0.000   0.000   0.000   0.000
  496        0.000   0.000   0.000   0.000
  497        0.000   0.000   0.000   0.000
  498        0.000   0.000   0.000   0.000
  499        0.000   0.000   0.000   0.000
  500       -0.000   0.000   0.000   0.000
  501        0.000  -0.000   0.000  -0.000
  502       -0.000   0.000   0.000   0.000
  503       -0.000   0.000   0.000   0.000
  504       -0.000   0.000   0.000   0.000
  505       -0.000   0.000   0.000   0.000
  506       -0.000   0.000   0.000   0.000
  507       -0.000   0.000   0.000   0.000
  508        0.000   0.000   0.000   0.000
  509       -0.000   0.000   0.000   0.000
  510        0.000   0.000   0.000   0.000
  511        0.000   0.000   0.000   0.000
  512        0.000   0.000   0.000   0.000
  513        0.000   0.000   0.000   0.000
  514        0.000   0.000   0.000   0.000
  515        0.000   0.000   0.000   0.000
  516        0.000   0.000   0.000   0.000
  517        0.000   0.000   0.000   0.000
  518        0.000   0.000   0.000   0.000
  519        0.000   0.000   0.000   0.000
  520        0.000   0.000   0.000   0.000
  521        0.000  -0.000   0.000   0.000
  522        0.000   0.000   0.000   0.000
  523        0.000   0.000   0.000   0.000
  524        0.000  -0.000   0.000   0.000
  525        0.000   0.000   0.000   0.000
  526        0.000  -0.000   0.000   0.000
  527        0.000   0.000   0.000   0.000
  528       -0.000  -0.000   0.000  -0.000
  529        0.000   0.000   0.000   0.000
  530       -0.000  -0.000   0.000  -0.000
  531        0.000   0.000   0.000   0.000
  532        0.000  -0.000   0.000  -0.000
  533       -0.000   0.000   0.000   0.000
  534        0.000  -0.000   0.000  -0.000
  535       -0.000   0.000   0.000   0.000
  536        0.000   0.000   0.000   0.000
  537       -0.000   0.000   0.000   0.000
  538       -0.000   0.000   0.000  -0.000
  539       -0.000   0.000   0.000   0.000
  540       -0.000   0.000   0.000   0.000
  541        0.000   0.000   0.000   0.000
  542       -0.000   0.000   0.000   0.000
  543        0.000   0.000   0.000   0.000
  544       -0.000   0.000   0.000   0.000
  545        0.000   0.000   0.000   0.000
  546        0.000   0.000   0.000   0.000
  547        0.000   0.000   0.000   0.000
  548        0.000  -0.000   0.000  -0.000
  549       -0.000   0.000   0.000   0.000
  550        0.000  -0.000   0.000  -0.000
  551       -0.000   0.000   0.000   0.000
  552       -0.000  -0.000   0.000  -0.000
  553       -0.000   0.000   0.000   0.000
  554       -0.000   0.000   0.000   0.000
  555       -0.000   0.000   0.000   0.000
  556        0.000  -0.000   0.000  -0.000
  557        0.000   0.000   0.000   0.000
  558       -0.000  -0.000   0.000  -0.000
  559        0.000   0.000   0.000   0.000
  560       -0.000  -0.000   0.000  -0.000
  561        0.000   0.000   0.000   0.000
  562       -0.000  -0.000   0.000  -0.000
  563        0.000   0.000   0.000   0.000
  564        0.000  -0.000   0.000  -0.000
  565       -0.000   0.000   0.000   0.000
  566        0.000  -0.000   0.000  -0.000
  567       -0.000   0.000   0.000   0.000
  568        0.000   0.000   0.000   0.000
  569       -0.000   0.000   0.000   0.000
  570       -0.000  -0.000   0.000  -0.000
  571       -0.000   0.000   0.000   0.000
  572        0.000  -0.000   0.000  -0.000
  573       -0.000   0.000   0.000   0.000
  574        0.000  -0.000   0.000  -0.000
  575       -0.000   0.000   0.000   0.000
  576       -0.000   0.000   0.000   0.000
  577       -0.000   0.000   0.000   0.000
  578       -0.000   0.000   0.000   0.000
  579       -0.000   0.000   0.000   0.000
  580        0.000   0.000   0.000   0.000
  581       -0.000   0.000   0.000   0.000
  582       -0.000  -0.000   0.000  -0.000
  583       -0.000   0.000   0.000   0.000
  584        0.000  -0.000   0.000  -0.000
  585       -0.000   0.000   0.000   0.000
  586       -0.000  -0.000   0.000  -0.000
  587       -0.000   0.000   0.000   0.000
  588        0.000  -0.000   0.000   0.000
  589        0.000   0.000   0.000   0.000
  590       -0.000  -0.000   0.000  -0.000
  591        0.000   0.000   0.000   0.000
  592        0.000  -0.000   0.000   0.000
  593        0.000   0.000   0.000   0.000
  594        0.000  -0.000   0.000   0.000
  595        0.000   0.000   0.000   0.000
  596        0.000  -0.000   0.000  -0.000
  597        0.000   0.000   0.000   0.000
  598       -0.000  -0.001   0.000  -0.001
  599        0.000   0.000   0.000   0.000
  600       -0.000  -0.000   0.000  -0.000
  601        0.000   0.000   0.000   0.000
  602       -0.000  -0.000   0.000  -0.000
  603        0.000   0.000   0.000   0.000
  604        0.000  -0.000   0.000  -0.000
  605        0.000   0.000   0.000   0.000
  606       -0.000  -0.000   0.000  -0.000
  607        0.000   0.000   0.000   0.000
  608        0.000  -0.000   0.000  -0.000
  609        0.000   0.000   0.000   0.000
  610       -0.000  -0.000   0.000  -0.000
  611        0.000   0.000   0.000   0.000
  612        0.000  -0.000   0.000   0.000
  613        0.000   0.000   0.000   0.000
  614       -0.000  -0.000   0.000  -0.000
  615        0.000   0.000   0.000   0.000
  616       -0.000  -0.000   0.000  -0.000
  617       -0.000   0.000   0.000   0.000
  618        0.000  -0.000   0.000  -0.000
  619        0.000   0.000   0.000   0.000
  620        0.000  -0.000   0.000  -0.000
  621        0.000   0.000   0.000   0.000
  622       -0.000  -0.000   0.000  -0.000
  623        0.000   0.000   0.000   0.000
  624        0.000   0.000   0.000   0.000
  625        0.000   0.000   0.000   0.000
  626        0.000   0.000   0.000   0.000
  627        0.000   0.000   0.000   0.000
  628       -0.000  -0.000   0.000  -0.000
  629        0.000   0.000   0.000   0.000
  630       -0.000   0.000   0.000  -0.000
  631        0.000   0.000   0.000   0.000
  632        0.000  -0.000   0.000  -0.000
  633        0.000   0.000   0.000   0.000
  634       -0.000  -0.000   0.000  -0.000
  635        0.000   0.000   0.000   0.000
--------------------------------------------------
tot          0.358   1.405  38.003  39.765
 

 total amount of memory used by VASP MPI-rank0   180321. kBytes
=======================================================================

   base      :      30000. kBytes
   nonlr-proj:      76119. kBytes
   fftplans  :      14661. kBytes
   grid      :      41612. kBytes
   one-center:       2488. kBytes
   wavefun   :      15441. kBytes
 
  
  
 General timing and accounting informations for this job:
 ========================================================
  
                  Total CPU time used (sec):     1212.514
                            User time (sec):     1144.041
                          System time (sec):       68.472
                         Elapsed time (sec):     1215.967
  
                   Maximum memory used (kb):     1089524.
                   Average memory used (kb):          N/A
  
                          Minor page faults:        73508
                          Major page faults:            0
                 Voluntary context switches:        15031
