 vasp.6.3.2 27Jun22 (build Nov 12 2024 19:13:04) complex                        
  
 executed on             LinuxIFC date 2025.02.03  21:53:34
 running  512 mpi-ranks, with    1 threads/rank
 distrk:  each k-point on  512 cores,    1 groups
 distr:  one band on NCORE=   4 cores,  128 groups


--------------------------------------------------------------------------------------------------------


 INCAR:
   SYSTEM = MnBrNCH geometry relaxation
   NCORE = 4
   ISTART = 0
   ICHARG = 2
   ISYM = 0
   GGA = PE
   IVDW = 2
   IALGO = 48
   ISMEAR = 0
   SIGMA = 0.05
   ENCUT = 500
   NELM = 5000
   EDIFF = 1E-06
   EDIFFG = -0.02
   LREAL = Auto
   IBRION = 2
   NSW = 10000

 POTCAR:    PAW_PBE Br 06Sep2000                  
 POTCAR:    PAW_PBE Br 06Sep2000                  
   SHA256 =  96a73d2954943bbee26f4990d676cc6c3bf44b8dd2c75cd4b3b825d8403f0103 Br/POTCAR             
   COPYR  = (c) Copyright 06Sep2000 Georg Kresse                                                    
   COPYR  = This file is part of the software VASP. Any use, copying, and all other rights are regul
   COPYR  = If you do not have a valid VASP license, you may not use, copy or distribute this file. 
   VRHFIN =Br: s2p5                                                                                 
   LEXCH  = PE                                                                                      
   EATOM  =   368.4488 eV,   27.0802 Ry                                                             
                                                                                                    
   TITEL  = PAW_PBE Br 06Sep2000                                                                    
   LULTRA =        F    use ultrasoft PP ?                                                          
   IUNSCR =        1    unscreen: 0-lin 1-nonlin 2-no                                               
   RPACOR =    1.900    partial core radius                                                         
   POMASS =   79.904; ZVAL   =    7.000    mass and valenz                                          
   RCORE  =    2.100    outmost cutoff radius                                                       
   RWIGS  =    2.200; RWIGS  =    1.164    wigner-seitz radius (au A)                               
   ENMAX  =  216.285; ENMIN  =  162.214 eV                                                          
   ICORE  =        3    local potential                                                             
   LCOR   =        T    correct aug charges                                                         
   LPAW   =        T    paw PP                                                                      
   EAUG   =  503.852                                                                                
   DEXC   =    0.000                                                                                
   RMAX   =    2.139    core radius for proj-oper                                                   
   RAUG   =    1.300    factor for augmentation sphere                                              
   RDEP   =    2.186    radius for radial grids                                                     
   RDEPT  =    1.890    core radius for aug-charge                                                  
                                                                                                    
   Atomic configuration                                                                             
   10 entries                                                                                       
     n  l   j            E        occ.                                                              
     1  0  0.50    -13316.2796   2.0000                                                             
     2  0  0.50     -1732.8239   2.0000                                                             
     2  1  1.50     -1528.2193   6.0000                                                             
     3  0  0.50      -238.0460   2.0000                                                             
     3  1  1.50      -173.4609   6.0000                                                             
     3  2  2.50       -66.7132  10.0000                                                             
     4  0  0.50       -20.1334   2.0000                                                             
     4  1  0.50        -7.8591   5.0000                                                             
     4  2  2.50        -8.1635   0.0000                                                             
     4  3  2.50        -8.1635   0.0000                                                             
   Description                                                                                      
     l       E           TYP  RCUT    TYP  RCUT                                                     
     0    -20.1333652     23  2.100                                                                 
     0    -21.4939478     23  2.100                                                                 
     1     -7.8591052     23  2.100                                                                 
     1     -3.1608434     23  2.100                                                                 
     2     -8.1634956     23  2.100                                                                 
     3     -1.3605826      7  2.100                                                                 
  local pseudopotential read in
  partial core-charges read in
  partial kinetic energy density read in
  atomic valenz-charges read in
  non local Contribution for L=           0  read in
    real space projection operators read in
  non local Contribution for L=           0  read in
    real space projection operators read in
  non local Contribution for L=           1  read in
    real space projection operators read in
  non local Contribution for L=           1  read in
    real space projection operators read in
  non local Contribution for L=           2  read in
    real space projection operators read in
    PAW grid and wavefunctions read in
 
   number of l-projection  operators is LMAX  =           5
   number of lm-projection operators is LMMAX =          13
 
 -----------------------------------------------------------------------------
|                                                                             |
|               ----> ADVICE to this user running VASP <----                  |
|                                                                             |
|     You have a (more or less) 'small supercell' and for smaller cells       |
|     it is recommended to use the reciprocal-space projection scheme!        |
|     The real-space optimization is not efficient for small cells and it     |
|     is also less accurate ...                                               |
|     Therefore, set LREAL=.FALSE. in the INCAR file.                         |
|                                                                             |
 -----------------------------------------------------------------------------

 Optimization of the real space projectors (new method)

 maximal supplied QI-value         = 17.95
 optimisation between [QCUT,QGAM] = [ 11.31, 22.80] = [ 35.82,145.56] Ry 
 Optimized for a Real-space Cutoff    1.16 Angstroem

   l    n(q)    QCUT    max X(q) W(low)/X(q) W(high)/X(q)  e(spline) 
   0      8    11.310   175.082    0.18E-03    0.16E-03    0.82E-07
   0      8    11.310   174.004    0.18E-03    0.15E-03    0.80E-07
   1      7    11.310    54.315    0.47E-03    0.60E-03    0.90E-07
   1      7    11.310    42.441    0.46E-03    0.59E-03    0.90E-07
   2      7    11.310     3.596    0.19E-03    0.18E-03    0.41E-07
  PAW_PBE Br 06Sep2000                  :
 energy of atom  1       EATOM= -368.4488
 kinetic energy error for atom=    0.0011 (will be added to EATOM!!)
 
 
 POSCAR: (c9 h14 n), br4 mn
  positions in cartesian coordinates
  No initial velocities read in
 exchange correlation table for  LEXCH =        8
   RHO(1)=    0.500       N(1)  =     2000
   RHO(2)=  100.500       N(2)  =     4000
 


--------------------------------------------------------------------------------------------------------


 ion  position               nearest neighbor table
   1  0.003  0.000  0.024-   2 2.28
   2  0.997  0.000  0.976-   1 2.28
 

IMPORTANT INFORMATION: All symmetrisations will be switched off!
NOSYMM: (Re-)initialisation of all symmetry stuff for point group C_1.


----------------------------------------------------------------------------------------

                                     Primitive cell                                     

  volume of cell :    7407.0461

  direct lattice vectors                    reciprocal lattice vectors
    17.127099991  0.000000000  0.000000000     0.058387001  0.000000000  0.002656447
     0.000000000  9.178700447  0.000000000     0.000000000  0.108947885  0.000000000
    -2.143705240  0.000000000 47.117259241     0.000000000  0.000000000  0.021223645

  length of vectors
    17.127099991  9.178700447 47.166000366     0.058447400  0.108947885  0.021223645

  position of ions in fractional coordinates (direct lattice)
     0.003029678  0.000000000  0.024205568
     0.996970322  0.000000000  0.975794432

  ion indices of the primitive-cell ions
   primitive index   ion index
                 1           1
                 2           2

----------------------------------------------------------------------------------------

 
 
 KPOINTS: Automatic generation                    

Automatic generation of k-mesh.
 Grid dimensions read from file:
 generate k-points for:    1    1    1

 Generating k-lattice:

  Cartesian coordinates                     Fractional coordinates (reciprocal lattice)
     0.058387001  0.000000000  0.002656447     1.000000000  0.000000000  0.000000000
     0.000000000  0.108947885  0.000000000     0.000000000  1.000000000  0.000000000
     0.000000000  0.000000000  0.021223645     0.000000000  0.000000000  1.000000000

  Length of vectors
     0.058447400  0.108947885  0.021223645

  Shift w.r.t. Gamma in fractional coordinates (k-lattice)
     0.000000000  0.000000000  0.000000000

 
 Subroutine IBZKPT returns following result:
 ===========================================
 
 Found      1 irreducible k-points:
 
 Following reciprocal coordinates:
            Coordinates               Weight
  0.000000  0.000000  0.000000      1.000000
 
 Following cartesian coordinates:
            Coordinates               Weight
  0.000000  0.000000  0.000000      1.000000
 


--------------------------------------------------------------------------------------------------------




 Dimension of arrays:
   k-points           NKPTS =      1   k-points in BZ     NKDIM =      1   number of bands    NBANDS=    128
   number of dos      NEDOS =    301   number of ions     NIONS =      2
   non local maximal  LDIM  =      5   non local SUM 2l+1 LMDIM =     13
   total plane-waves  NPLWV = ******
   max r-space proj   IRMAX =   1205   max aug-charges    IRDMAX=   6571
   dimension x,y,z NGX =    96 NGY =   50 NGZ =  270
   dimension x,y,z NGXF=   192 NGYF=  100 NGZF=  540
   support grid    NGXF=   192 NGYF=  100 NGZF=  540
   ions per type =               2
   NGX,Y,Z   is equivalent  to a cutoff of   9.32,  9.06,  9.52 a.u.
   NGXF,Y,Z  is equivalent  to a cutoff of  18.64, 18.11, 19.03 a.u.

 SYSTEM =  MnBrNCH geometry relaxation             
 POSCAR =  (c9 h14 n), br4 mn                      

 Startparameter for this run:
   NWRITE =      2    write-flag & timer
   PREC   = normal    normal or accurate (medium, high low for compatibility)
   ISTART =      0    job   : 0-new  1-cont  2-samecut
   ICHARG =      2    charge: 1-file 2-atom 10-const
   ISPIN  =      1    spin polarized calculation?
   LNONCOLLINEAR =      F non collinear calculations
   LSORBIT =      F    spin-orbit coupling
   INIWAV =      1    electr: 0-lowe 1-rand  2-diag
   LASPH  =      F    aspherical Exc in radial PAW
 Electronic Relaxation 1
   ENCUT  =  500.0 eV  36.75 Ry    6.06 a.u.  31.23 16.73 85.99*2*pi/ulx,y,z
   ENINI  =  500.0     initial cutoff
   ENAUG  =  503.9 eV  augmentation charge cutoff
   NELM   =   5000;   NELMIN=  2; NELMDL=-12     # of ELM steps 
   EDIFF  = 0.1E-05   stopping-criterion for ELM
   LREAL  =      T    real-space projection
   NLSPLINE    = F    spline interpolate recip. space projectors
   LCOMPAT=      F    compatible to vasp.4.4
   GGA_COMPAT  = T    GGA compatible to vasp.4.4-vasp.4.6
   LMAXPAW     = -100 max onsite density
   LMAXMIX     =    2 max onsite mixed and CHGCAR
   VOSKOWN=      0    Vosko Wilk Nusair interpolation
   ROPT   =   -0.00050
 Ionic relaxation
   EDIFFG = -.2E-01   stopping-criterion for IOM
   NSW    =  10000    number of steps for IOM
   NBLOCK =      1;   KBLOCK =  10000    inner block; outer block 
   IBRION =      2    ionic relax: 0-MD 1-quasi-New 2-CG
   NFREE  =      1    steps in history (QN), initial steepest desc. (CG)
   ISIF   =      2    stress and relaxation
   IWAVPR =     11    prediction:  0-non 1-charg 2-wave 3-comb
   ISYM   =      0    0-nonsym 1-usesym 2-fastsym
   LCORR  =      T    Harris-Foulkes like correction to forces

   POTIM  = 0.5000    time-step for ionic-motion
   TEIN   =    0.0    initial temperature
   TEBEG  =    0.0;   TEEND  =   0.0 temperature during run
   SMASS  =  -3.00    Nose mass-parameter (am)
   estimated Nose-frequenzy (Omega)   =  0.10E-29 period in steps = 0.13E+47 mass=  -0.670E-26a.u.
   SCALEE = 1.0000    scale energy and forces
   NPACO  =    256;   APACO  = 10.0  distance and # of slots for P.C.
   PSTRESS=    0.0 pullay stress

  Mass of Ions in am
   POMASS =  79.90
  Ionic Valenz
   ZVAL   =   7.00
  Atomic Wigner-Seitz radii
   RWIGS  =  -1.00
  virtual crystal weights 
   VCA    =   1.00
   NELECT =      14.0000    total number of electrons
   NUPDOWN=      -1.0000    fix difference up-down

 DOS related values:
   EMIN   =  10.00;   EMAX   =-10.00  energy-range for DOS
   EFERMI =   0.00
   ISMEAR =     0;   SIGMA  =   0.05  broadening in eV -4-tet -1-fermi 0-gaus

 Electronic relaxation 2 (details)
   IALGO  =     48    algorithm
   LDIAG  =      T    sub-space diagonalisation (order eigenvalues)
   LSUBROT=      F    optimize rotation matrix (better conditioning)
   TURBO    =      0    0=normal 1=particle mesh
   IRESTART =      0    0=no restart 2=restart with 2 vectors
   NREBOOT  =      0    no. of reboots
   NMIN     =      0    reboot dimension
   EREF     =   0.00    reference energy to select bands
   IMIX   =      4    mixing-type and parameters
     AMIX     =   0.40;   BMIX     =  1.00
     AMIX_MAG =   1.60;   BMIX_MAG =  1.00
     AMIN     =   0.10
     WC   =   100.;   INIMIX=   1;  MIXPRE=   1;  MAXMIX= -45

 Intra band minimization:
   WEIMIN = 0.0010     energy-eigenvalue tresh-hold
   EBREAK =  0.20E-08  absolut break condition
   DEPER  =   0.30     relativ break condition  

   TIME   =   0.40     timestep for ELM

  volume/ion in A,a.u.               =    3703.52     24992.61
  Fermi-wavevector in a.u.,A,eV,Ry     =   0.202412  0.382503  0.557438  0.040971
  Thomas-Fermi vector in A             =   0.959338
 
 Write flags
   LWAVE        =      T    write WAVECAR
   LDOWNSAMPLE  =      F    k-point downsampling of WAVECAR
   LCHARG       =      T    write CHGCAR
   LVTOT        =      F    write LOCPOT, total local potential
   LVHAR        =      F    write LOCPOT, Hartree potential only
   LELF         =      F    write electronic localiz. function (ELF)
   LORBIT       =      0    0 simple, 1 ext, 2 COOP (PROOUT), +10 PAW based schemes


 Dipole corrections
   LMONO  =      F    monopole corrections only (constant potential shift)
   LDIPOL =      F    correct potential (dipole corrections)
   IDIPOL =      0    1-x, 2-y, 3-z, 4-all directions 
   EPSILON=  1.0000000 bulk dielectric constant

 Exchange correlation treatment:
   GGA     =    PE    GGA type
   LEXCH   =     8    internal setting for exchange type
   LIBXC   =     F    Libxc                    
   VOSKOWN =     0    Vosko Wilk Nusair interpolation
   LHFCALC =     F    Hartree Fock is set to
   LHFONE  =     F    Hartree Fock one center treatment
   AEXX    =    0.0000 exact exchange contribution

 Linear response parameters
   LEPSILON=     F    determine dielectric tensor
   LRPA    =     F    only Hartree local field effects (RPA)
   LNABLA  =     F    use nabla operator in PAW spheres
   LVEL    =     F    velocity operator in full k-point grid
   CSHIFT  =0.1000    complex shift for real part using Kramers Kronig
   OMEGAMAX=  -1.0    maximum frequency
   DEG_THRESHOLD= 0.2000000E-02 threshold for treating states as degnerate
   RTIME   =   -0.100 relaxation time in fs
  (WPLASMAI=    0.000 imaginary part of plasma frequency in eV, 0.658/RTIME)
   DFIELD  = 0.0000000 0.0000000 0.0000000 field for delta impulse in time
 
  Optional k-point grid parameters
   LKPOINTS_OPT  =     F    use optional k-point grid
   KPOINTS_OPT_MODE=     1    mode for optional k-point grid
 
 Orbital magnetization related:
   ORBITALMAG=     F  switch on orbital magnetization
   LCHIMAG   =     F  perturbation theory with respect to B field
   DQ        =  0.001000  dq finite difference perturbation B field
   LLRAUG    =     F  two centre corrections for induced B field



--------------------------------------------------------------------------------------------------------


 conjugate gradient relaxation of ions
 charge density and potential will be updated during run
 non-spin polarized calculation
 RMM-DIIS sequential band-by-band
 perform sub-space diagonalisation
    before iterative eigenvector-optimisation
 modified Broyden-mixing scheme, WC =      100.0
 initial mixing is a Kerker type mixing with AMIX =  0.4000 and BMIX =      1.0000
 Hartree-type preconditioning will be used
 using additional bands          121
 real space projection scheme for non local part
 use partial core corrections
 calculate Harris-corrections to forces 
   (improved forces if not selfconsistent)
 use gradient corrections 
 use of overlap-Matrix (Vanderbilt PP)
 Gauss-broadening in eV      SIGMA  =   0.05


--------------------------------------------------------------------------------------------------------


  energy-cutoff  :      500.00
  volume of cell :     7407.05
      direct lattice vectors                 reciprocal lattice vectors
    17.127099991  0.000000000  0.000000000     0.058387001  0.000000000  0.002656447
     0.000000000  9.178700447  0.000000000     0.000000000  0.108947885  0.000000000
    -2.143705240  0.000000000 47.117259241     0.000000000  0.000000000  0.021223645

  length of vectors
    17.127099991  9.178700447 47.166000366     0.058447400  0.108947885  0.021223645


 
 k-points in units of 2pi/SCALE and weight: Automatic generation                    
   0.00000000  0.00000000  0.00000000       1.000
 
 k-points in reciprocal lattice and weights: Automatic generation                    
   0.00000000  0.00000000  0.00000000       1.000
 
 position of ions in fractional coordinates (direct lattice) 
   0.00302968  0.00000000  0.02420557
   0.99697032  0.00000000  0.97579443
 
 position of ions in cartesian coordinates  (Angst):
   0.00000000  0.00000000  1.14050000
  14.98339475  0.00000000 45.97675924
 


--------------------------------------------------------------------------------------------------------


 k-point   1 :   0.0000 0.0000 0.0000  plane waves:  188119

 maximum and minimum number of plane-waves per node :     47032    47025

 maximum number of plane-waves:    188119
 maximum index in each direction: 
   IXMAX=   31   IYMAX=   16   IZMAX=   85
   IXMIN=  -31   IYMIN=  -16   IZMIN=  -85


 real space projection operators:
  total allocation   :        227.91 KBytes
  max/ min on nodes  :         59.92         53.83


 parallel 3D FFT for wavefunctions:
    minimum data exchange during FFTs selected (reduces bandwidth)
 parallel 3D FFT for charge:
    minimum data exchange during FFTs selected (reduces bandwidth)


 total amount of memory used by VASP MPI-rank0    58127. kBytes
=======================================================================

   base      :      30000. kBytes
   nonlr-proj:        112. kBytes
   fftplans  :      11675. kBytes
   grid      :      15577. kBytes
   one-center:          8. kBytes
   wavefun   :        755. kBytes
 
     INWAV:  cpu time      0.0004: real time      0.0005
 Broyden mixing: mesh for mixing (old mesh)
   NGX = 63   NGY = 33   NGZ =171
  (NGX  =192   NGY  =100   NGZ  =540)
  gives a total of 355509 points

 initial charge density was supplied:
 charge density of overlapping atoms calculated
 number of electron      14.0000000 magnetization 
 keeping initial charge density in first step


--------------------------------------------------------------------------------------------------------


 Maximum index for non-local projection operator          295
 Maximum index for augmentation-charges          405 (set IRDMAX)


--------------------------------------------------------------------------------------------------------


 First call to EWALD:  gamma=   0.091
 Maximum number of real-space cells 3x 5x 1
 Maximum number of reciprocal cells 2x 2x 6

    FEWALD:  cpu time      0.0070: real time      0.0079


--------------------------------------- Iteration      1(   1)  ---------------------------------------


    POTLOK:  cpu time      0.1798: real time      0.1892
    SETDIJ:  cpu time      0.0144: real time      0.0145
    EDDIAG:  cpu time      0.4269: real time      0.4833
  RMM-DIIS:  cpu time      0.1604: real time      0.1677
    ORTHCH:  cpu time      0.0199: real time      0.0199
       DOS:  cpu time      0.0031: real time      0.0031
    --------------------------------------------
      LOOP:  cpu time      0.8046: real time      0.8777

 eigenvalue-minimisations  :   128
 total energy-change (2. order) : 0.9924647E+02  (-0.6253955E+02)
 number of electron      14.0000000 magnetization 
 augmentation part       14.0000000 magnetization 

 Free energy of the ion-electron system (eV)
  ---------------------------------------------------
  alpha Z        PSCENC =         0.24644749
  Ewald energy   TEWEN  =       336.45058244
  -Hartree energ DENC   =      -941.00061953
  -exchange      EXHF   =         0.00000000
  -V(xc)+E(xc)   XCENC  =        19.31860173
  PAW double counting   =       590.15996095     -577.81001267
  entropy T*S    EENTRO =        -0.00016158
  eigenvalues    EBANDS =       -65.01368539
  atomic energy  EATOM  =       736.89535500
  Solvation  Ediel_sol  =         0.00000000
  ---------------------------------------------------
  free energy    TOTEN  =        99.24646844 eV

  energy without entropy =       99.24663002  energy(sigma->0) =       99.24654923


--------------------------------------------------------------------------------------------------------




--------------------------------------- Iteration      1(   2)  ---------------------------------------


    EDDIAG:  cpu time      0.2415: real time      0.2558
  RMM-DIIS:  cpu time      0.1473: real time      0.1457
    ORTHCH:  cpu time      0.0177: real time      0.0177
       DOS:  cpu time      0.0052: real time      0.0052
    --------------------------------------------
      LOOP:  cpu time      0.4117: real time      0.4244

 eigenvalue-minimisations  :   128
 total energy-change (2. order) :-0.4141931E+01  (-0.1546151E+02)
 number of electron      14.0000000 magnetization 
 augmentation part       14.0000000 magnetization 

 Free energy of the ion-electron system (eV)
  ---------------------------------------------------
  alpha Z        PSCENC =         0.24644749
  Ewald energy   TEWEN  =       336.45058244
  -Hartree energ DENC   =      -941.00061953
  -exchange      EXHF   =         0.00000000
  -V(xc)+E(xc)   XCENC  =        19.31860173
  PAW double counting   =       590.15996095     -577.81001267
  entropy T*S    EENTRO =        -0.06542821
  eigenvalues    EBANDS =       -69.09034959
  atomic energy  EATOM  =       736.89535500
  Solvation  Ediel_sol  =         0.00000000
  ---------------------------------------------------
  free energy    TOTEN  =        95.10453761 eV

  energy without entropy =       95.16996582  energy(sigma->0) =       95.13725171


--------------------------------------------------------------------------------------------------------




--------------------------------------- Iteration      1(   3)  ---------------------------------------


    EDDIAG:  cpu time      0.3265: real time      0.3268
  RMM-DIIS:  cpu time      0.1255: real time      0.1266
    ORTHCH:  cpu time      0.0286: real time      0.0273
       DOS:  cpu time      0.0022: real time      0.0021
    --------------------------------------------
      LOOP:  cpu time      0.4827: real time      0.4827

 eigenvalue-minimisations  :   128
 total energy-change (2. order) :-0.4232647E+02  (-0.3347751E+02)
 number of electron      14.0000000 magnetization 
 augmentation part       14.0000000 magnetization 

 Free energy of the ion-electron system (eV)
  ---------------------------------------------------
  alpha Z        PSCENC =         0.24644749
  Ewald energy   TEWEN  =       336.45058244
  -Hartree energ DENC   =      -941.00061953
  -exchange      EXHF   =         0.00000000
  -V(xc)+E(xc)   XCENC  =        19.31860173
  PAW double counting   =       590.15996095     -577.81001267
  entropy T*S    EENTRO =        -0.01993918
  eigenvalues    EBANDS =      -111.46231075
  atomic energy  EATOM  =       736.89535500
  Solvation  Ediel_sol  =         0.00000000
  ---------------------------------------------------
  free energy    TOTEN  =        52.77806548 eV

  energy without entropy =       52.79800466  energy(sigma->0) =       52.78803507


--------------------------------------------------------------------------------------------------------




--------------------------------------- Iteration      1(   4)  ---------------------------------------


    EDDIAG:  cpu time      0.2306: real time      0.2453
  RMM-DIIS:  cpu time      0.1243: real time      0.1242
    ORTHCH:  cpu time      0.0257: real time      0.0243
       DOS:  cpu time      0.0011: real time      0.0011
    --------------------------------------------
      LOOP:  cpu time      0.3816: real time      0.3948

 eigenvalue-minimisations  :   128
 total energy-change (2. order) :-0.3877087E+02  (-0.2151888E+02)
 number of electron      14.0000000 magnetization 
 augmentation part       14.0000000 magnetization 

 Free energy of the ion-electron system (eV)
  ---------------------------------------------------
  alpha Z        PSCENC =         0.24644749
  Ewald energy   TEWEN  =       336.45058244
  -Hartree energ DENC   =      -941.00061953
  -exchange      EXHF   =         0.00000000
  -V(xc)+E(xc)   XCENC  =        19.31860173
  PAW double counting   =       590.15996095     -577.81001267
  entropy T*S    EENTRO =        -0.00000000
  eigenvalues    EBANDS =      -150.25311734
  atomic energy  EATOM  =       736.89535500
  Solvation  Ediel_sol  =         0.00000000
  ---------------------------------------------------
  free energy    TOTEN  =        14.00719807 eV

  energy without entropy =       14.00719807  energy(sigma->0) =       14.00719807


--------------------------------------------------------------------------------------------------------




--------------------------------------- Iteration      1(   5)  ---------------------------------------


    EDDIAG:  cpu time      0.2647: real time      0.2649
  RMM-DIIS:  cpu time      0.1239: real time      0.1238
    ORTHCH:  cpu time      0.0318: real time      0.0302
       DOS:  cpu time      0.0009: real time      0.0009
    --------------------------------------------
      LOOP:  cpu time      0.4213: real time      0.4197

 eigenvalue-minimisations  :   128
 total energy-change (2. order) :-0.1455928E+02  (-0.1293094E+02)
 number of electron      14.0000000 magnetization 
 augmentation part       14.0000000 magnetization 

 Free energy of the ion-electron system (eV)
  ---------------------------------------------------
  alpha Z        PSCENC =         0.24644749
  Ewald energy   TEWEN  =       336.45058244
  -Hartree energ DENC   =      -941.00061953
  -exchange      EXHF   =         0.00000000
  -V(xc)+E(xc)   XCENC  =        19.31860173
  PAW double counting   =       590.15996095     -577.81001267
  entropy T*S    EENTRO =        -0.00000000
  eigenvalues    EBANDS =      -164.81240048
  atomic energy  EATOM  =       736.89535500
  Solvation  Ediel_sol  =         0.00000000
  ---------------------------------------------------
  free energy    TOTEN  =        -0.55208506 eV

  energy without entropy =       -0.55208506  energy(sigma->0) =       -0.55208506


--------------------------------------------------------------------------------------------------------




--------------------------------------- Iteration      1(   6)  ---------------------------------------


    EDDIAG:  cpu time      0.2622: real time      0.2773
  RMM-DIIS:  cpu time      0.1240: real time      0.1239
    ORTHCH:  cpu time      0.0257: real time      0.0248
       DOS:  cpu time      0.0008: real time      0.0008
    --------------------------------------------
      LOOP:  cpu time      0.4127: real time      0.4268

 eigenvalue-minimisations  :   128
 total energy-change (2. order) :-0.2342013E+01  (-0.2166991E+01)
 number of electron      14.0000000 magnetization 
 augmentation part       14.0000000 magnetization 

 Free energy of the ion-electron system (eV)
  ---------------------------------------------------
  alpha Z        PSCENC =         0.24644749
  Ewald energy   TEWEN  =       336.45058244
  -Hartree energ DENC   =      -941.00061953
  -exchange      EXHF   =         0.00000000
  -V(xc)+E(xc)   XCENC  =        19.31860173
  PAW double counting   =       590.15996095     -577.81001267
  entropy T*S    EENTRO =        -0.00000000
  eigenvalues    EBANDS =      -167.15441360
  atomic energy  EATOM  =       736.89535500
  Solvation  Ediel_sol  =         0.00000000
  ---------------------------------------------------
  free energy    TOTEN  =        -2.89409819 eV

  energy without entropy =       -2.89409819  energy(sigma->0) =       -2.89409819


--------------------------------------------------------------------------------------------------------




--------------------------------------- Iteration      1(   7)  ---------------------------------------


    EDDIAG:  cpu time      0.2271: real time      0.2412
  RMM-DIIS:  cpu time      0.1240: real time      0.1237
    ORTHCH:  cpu time      0.0264: real time      0.0249
       DOS:  cpu time      0.0009: real time      0.0009
    --------------------------------------------
      LOOP:  cpu time      0.3784: real time      0.3907

 eigenvalue-minimisations  :   128
 total energy-change (2. order) :-0.3485141E+00  (-0.3146038E+00)
 number of electron      14.0000000 magnetization 
 augmentation part       14.0000000 magnetization 

 Free energy of the ion-electron system (eV)
  ---------------------------------------------------
  alpha Z        PSCENC =         0.24644749
  Ewald energy   TEWEN  =       336.45058244
  -Hartree energ DENC   =      -941.00061953
  -exchange      EXHF   =         0.00000000
  -V(xc)+E(xc)   XCENC  =        19.31860173
  PAW double counting   =       590.15996095     -577.81001267
  entropy T*S    EENTRO =        -0.00000000
  eigenvalues    EBANDS =      -167.50292775
  atomic energy  EATOM  =       736.89535500
  Solvation  Ediel_sol  =         0.00000000
  ---------------------------------------------------
  free energy    TOTEN  =        -3.24261233 eV

  energy without entropy =       -3.24261233  energy(sigma->0) =       -3.24261233


--------------------------------------------------------------------------------------------------------




--------------------------------------- Iteration      1(   8)  ---------------------------------------


    EDDIAG:  cpu time      0.2251: real time      0.2401
  RMM-DIIS:  cpu time      0.1250: real time      0.1251
    ORTHCH:  cpu time      0.0245: real time      0.0233
       DOS:  cpu time      0.0015: real time      0.0015
    --------------------------------------------
      LOOP:  cpu time      0.3761: real time      0.3900

 eigenvalue-minimisations  :   128
 total energy-change (2. order) :-0.5362561E-01  (-0.5111854E-01)
 number of electron      14.0000000 magnetization 
 augmentation part       14.0000000 magnetization 

 Free energy of the ion-electron system (eV)
  ---------------------------------------------------
  alpha Z        PSCENC =         0.24644749
  Ewald energy   TEWEN  =       336.45058244
  -Hartree energ DENC   =      -941.00061953
  -exchange      EXHF   =         0.00000000
  -V(xc)+E(xc)   XCENC  =        19.31860173
  PAW double counting   =       590.15996095     -577.81001267
  entropy T*S    EENTRO =        -0.00000000
  eigenvalues    EBANDS =      -167.55655336
  atomic energy  EATOM  =       736.89535500
  Solvation  Ediel_sol  =         0.00000000
  ---------------------------------------------------
  free energy    TOTEN  =        -3.29623795 eV

  energy without entropy =       -3.29623795  energy(sigma->0) =       -3.29623795


--------------------------------------------------------------------------------------------------------




--------------------------------------- Iteration      1(   9)  ---------------------------------------


    EDDIAG:  cpu time      0.2333: real time      0.2473
  RMM-DIIS:  cpu time      0.2670: real time      0.2678
    ORTHCH:  cpu time      0.0151: real time      0.0151
       DOS:  cpu time      0.0025: real time      0.0025
    --------------------------------------------
      LOOP:  cpu time      0.5179: real time      0.5326

 eigenvalue-minimisations  :   256
 total energy-change (2. order) :-0.1008015E-01  (-0.9670876E-02)
 number of electron      14.0000000 magnetization 
 augmentation part       14.0000000 magnetization 

 Free energy of the ion-electron system (eV)
  ---------------------------------------------------
  alpha Z        PSCENC =         0.24644749
  Ewald energy   TEWEN  =       336.45058244
  -Hartree energ DENC   =      -941.00061953
  -exchange      EXHF   =         0.00000000
  -V(xc)+E(xc)   XCENC  =        19.31860173
  PAW double counting   =       590.15996095     -577.81001267
  entropy T*S    EENTRO =        -0.00000000
  eigenvalues    EBANDS =      -167.56663351
  atomic energy  EATOM  =       736.89535500
  Solvation  Ediel_sol  =         0.00000000
  ---------------------------------------------------
  free energy    TOTEN  =        -3.30631810 eV

  energy without entropy =       -3.30631810  energy(sigma->0) =       -3.30631810


--------------------------------------------------------------------------------------------------------




--------------------------------------- Iteration      1(  10)  ---------------------------------------


    EDDIAG:  cpu time      0.2942: real time      0.3098
  RMM-DIIS:  cpu time      0.2273: real time      0.2238
    ORTHCH:  cpu time      0.0158: real time      0.0158
       DOS:  cpu time      0.0010: real time      0.0009
    --------------------------------------------
      LOOP:  cpu time      0.5383: real time      0.5503

 eigenvalue-minimisations  :   256
 total energy-change (2. order) :-0.2749492E-02  (-0.2723803E-02)
 number of electron      14.0000000 magnetization 
 augmentation part       14.0000000 magnetization 

 Free energy of the ion-electron system (eV)
  ---------------------------------------------------
  alpha Z        PSCENC =         0.24644749
  Ewald energy   TEWEN  =       336.45058244
  -Hartree energ DENC   =      -941.00061953
  -exchange      EXHF   =         0.00000000
  -V(xc)+E(xc)   XCENC  =        19.31860173
  PAW double counting   =       590.15996095     -577.81001267
  entropy T*S    EENTRO =        -0.00000000
  eigenvalues    EBANDS =      -167.56938300
  atomic energy  EATOM  =       736.89535500
  Solvation  Ediel_sol  =         0.00000000
  ---------------------------------------------------
  free energy    TOTEN  =        -3.30906759 eV

  energy without entropy =       -3.30906759  energy(sigma->0) =       -3.30906759


--------------------------------------------------------------------------------------------------------




--------------------------------------- Iteration      1(  11)  ---------------------------------------


    EDDIAG:  cpu time      0.2258: real time      0.2402
  RMM-DIIS:  cpu time      0.2260: real time      0.2234
    ORTHCH:  cpu time      0.0162: real time      0.0162
       DOS:  cpu time      0.0010: real time      0.0010
    --------------------------------------------
      LOOP:  cpu time      0.4689: real time      0.4807

 eigenvalue-minimisations  :   256
 total energy-change (2. order) :-0.3924462E-03  (-0.3808148E-03)
 number of electron      14.0000000 magnetization 
 augmentation part       14.0000000 magnetization 

 Free energy of the ion-electron system (eV)
  ---------------------------------------------------
  alpha Z        PSCENC =         0.24644749
  Ewald energy   TEWEN  =       336.45058244
  -Hartree energ DENC   =      -941.00061953
  -exchange      EXHF   =         0.00000000
  -V(xc)+E(xc)   XCENC  =        19.31860173
  PAW double counting   =       590.15996095     -577.81001267
  entropy T*S    EENTRO =        -0.00000000
  eigenvalues    EBANDS =      -167.56977544
  atomic energy  EATOM  =       736.89535500
  Solvation  Ediel_sol  =         0.00000000
  ---------------------------------------------------
  free energy    TOTEN  =        -3.30946003 eV

  energy without entropy =       -3.30946003  energy(sigma->0) =       -3.30946003


--------------------------------------------------------------------------------------------------------




--------------------------------------- Iteration      1(  12)  ---------------------------------------


    EDDIAG:  cpu time      0.2417: real time      0.2420
  RMM-DIIS:  cpu time      0.2284: real time      0.2244
    ORTHCH:  cpu time      0.0161: real time      0.0161
       DOS:  cpu time      0.0009: real time      0.0009
    CHARGE:  cpu time      0.0650: real time      0.0650
    MIXING:  cpu time      0.0069: real time      0.0073
    --------------------------------------------
      LOOP:  cpu time      0.5591: real time      0.5557

 eigenvalue-minimisations  :   256
 total energy-change (2. order) :-0.1318708E-03  (-0.1307442E-03)
 number of electron      13.9999997 magnetization 
 augmentation part       -2.7905690 magnetization 

 Broyden mixing:
  rms(total) = 0.67051E+00    rms(broyden)= 0.67051E+00
  rms(prec ) = 0.67252E+00
  weight for this iteration     100.00

 Free energy of the ion-electron system (eV)
  ---------------------------------------------------
  alpha Z        PSCENC =         0.24644749
  Ewald energy   TEWEN  =       336.45058244
  -Hartree energ DENC   =      -941.00061953
  -exchange      EXHF   =         0.00000000
  -V(xc)+E(xc)   XCENC  =        19.31860173
  PAW double counting   =       590.15996095     -577.81001267
  entropy T*S    EENTRO =        -0.00000000
  eigenvalues    EBANDS =      -167.56990732
  atomic energy  EATOM  =       736.89535500
  Solvation  Ediel_sol  =         0.00000000
  ---------------------------------------------------
  free energy    TOTEN  =        -3.30959190 eV

  energy without entropy =       -3.30959190  energy(sigma->0) =       -3.30959190


--------------------------------------------------------------------------------------------------------




--------------------------------------- Iteration      1(  13)  ---------------------------------------


    POTLOK:  cpu time      0.1632: real time      0.1633
    SETDIJ:  cpu time      0.0119: real time      0.0119
    EDDIAG:  cpu time      0.2251: real time      0.2253
  RMM-DIIS:  cpu time      0.3252: real time      0.3205
    ORTHCH:  cpu time      0.0161: real time      0.0161
       DOS:  cpu time      0.0009: real time      0.0009
    CHARGE:  cpu time      0.0618: real time      0.0623
    MIXING:  cpu time      0.0105: real time      0.0243
    --------------------------------------------
      LOOP:  cpu time      0.8146: real time      0.8244

 eigenvalue-minimisations  :   263
 total energy-change (2. order) : 0.2195844E+00  (-0.1273487E-01)
 number of electron      13.9999997 magnetization 
 augmentation part       -2.7891244 magnetization 

 Broyden mixing:
  rms(total) = 0.40647E+00    rms(broyden)= 0.40647E+00
  rms(prec ) = 0.40756E+00
  weight for this iteration     100.00

 eigenvalues of (default mixing * dielectric matrix)
  average eigenvalue GAMMA=   2.5221
  2.5221

 Free energy of the ion-electron system (eV)
  ---------------------------------------------------
  alpha Z        PSCENC =         0.24644749
  Ewald energy   TEWEN  =       336.45058244
  -Hartree energ DENC   =      -941.09042027
  -exchange      EXHF   =         0.00000000
  -V(xc)+E(xc)   XCENC  =        19.39732735
  PAW double counting   =       666.09465869     -653.80053646
  entropy T*S    EENTRO =        -0.00000000
  eigenvalues    EBANDS =      -167.28342175
  atomic energy  EATOM  =       736.89535500
  Solvation  Ediel_sol  =         0.00000000
  ---------------------------------------------------
  free energy    TOTEN  =        -3.09000751 eV

  energy without entropy =       -3.09000751  energy(sigma->0) =       -3.09000751


--------------------------------------------------------------------------------------------------------




--------------------------------------- Iteration      1(  14)  ---------------------------------------


    POTLOK:  cpu time      0.1418: real time      0.1576
    SETDIJ:  cpu time      0.0103: real time      0.0103
    EDDIAG:  cpu time      0.2230: real time      0.2259
  RMM-DIIS:  cpu time      0.3654: real time      0.3602
    ORTHCH:  cpu time      0.0163: real time      0.0163
       DOS:  cpu time      0.0009: real time      0.0009
    CHARGE:  cpu time      0.0601: real time      0.0601
    MIXING:  cpu time      0.0054: real time      0.0099
    --------------------------------------------
      LOOP:  cpu time      0.8232: real time      0.8411

 eigenvalue-minimisations  :   264
 total energy-change (2. order) : 0.9724458E-01  (-0.2291876E-01)
 number of electron      13.9999997 magnetization 
 augmentation part       -2.7860636 magnetization 

 Broyden mixing:
  rms(total) = 0.29783E-01    rms(broyden)= 0.29782E-01
  rms(prec ) = 0.30392E-01
  weight for this iteration     100.00

 eigenvalues of (default mixing * dielectric matrix)
  average eigenvalue GAMMA=   2.2503
  2.1336  2.3670

 Free energy of the ion-electron system (eV)
  ---------------------------------------------------
  alpha Z        PSCENC =         0.24644749
  Ewald energy   TEWEN  =       336.45058244
  -Hartree energ DENC   =      -941.84898259
  -exchange      EXHF   =         0.00000000
  -V(xc)+E(xc)   XCENC  =        19.56702176
  PAW double counting   =       796.97351034     -784.75341673
  entropy T*S    EENTRO =        -0.00000000
  eigenvalues    EBANDS =      -166.52328064
  atomic energy  EATOM  =       736.89535500
  Solvation  Ediel_sol  =         0.00000000
  ---------------------------------------------------
  free energy    TOTEN  =        -2.99276293 eV

  energy without entropy =       -2.99276293  energy(sigma->0) =       -2.99276293


--------------------------------------------------------------------------------------------------------




--------------------------------------- Iteration      1(  15)  ---------------------------------------


    POTLOK:  cpu time      0.1378: real time      0.1538
    SETDIJ:  cpu time      0.0101: real time      0.0101
    EDDIAG:  cpu time      0.2427: real time      0.2424
  RMM-DIIS:  cpu time      0.2290: real time      0.2256
    ORTHCH:  cpu time      0.0173: real time      0.0173
       DOS:  cpu time      0.0009: real time      0.0009
    CHARGE:  cpu time      0.0596: real time      0.0596
    MIXING:  cpu time      0.0046: real time      0.0067
    --------------------------------------------
      LOOP:  cpu time      0.7021: real time      0.7165

 eigenvalue-minimisations  :   256
 total energy-change (2. order) : 0.6569879E-03  (-0.7782074E-03)
 number of electron      13.9999997 magnetization 
 augmentation part       -2.7861139 magnetization 

 Broyden mixing:
  rms(total) = 0.65462E-02    rms(broyden)= 0.65461E-02
  rms(prec ) = 0.70567E-02
  weight for this iteration     100.00

 eigenvalues of (default mixing * dielectric matrix)
  average eigenvalue GAMMA=   2.0575
  1.4868  2.3428  2.3428

 Free energy of the ion-electron system (eV)
  ---------------------------------------------------
  alpha Z        PSCENC =         0.24644749
  Ewald energy   TEWEN  =       336.45058244
  -Hartree energ DENC   =      -942.11011429
  -exchange      EXHF   =         0.00000000
  -V(xc)+E(xc)   XCENC  =        19.55938984
  PAW double counting   =       797.96585122     -785.73743794
  entropy T*S    EENTRO =        -0.00000000
  eigenvalues    EBANDS =      -166.26217970
  atomic energy  EATOM  =       736.89535500
  Solvation  Ediel_sol  =         0.00000000
  ---------------------------------------------------
  free energy    TOTEN  =        -2.99210594 eV

  energy without entropy =       -2.99210594  energy(sigma->0) =       -2.99210594


--------------------------------------------------------------------------------------------------------




--------------------------------------- Iteration      1(  16)  ---------------------------------------


    POTLOK:  cpu time      0.1390: real time      0.1542
    SETDIJ:  cpu time      0.0101: real time      0.0101
    EDDIAG:  cpu time      0.2803: real time      0.2802
  RMM-DIIS:  cpu time      0.2211: real time      0.2203
    ORTHCH:  cpu time      0.0161: real time      0.0161
       DOS:  cpu time      0.0014: real time      0.0014
    CHARGE:  cpu time      0.0613: real time      0.0613
    MIXING:  cpu time      0.0066: real time      0.0066
    --------------------------------------------
      LOOP:  cpu time      0.7359: real time      0.7503

 eigenvalue-minimisations  :   256
 total energy-change (2. order) :-0.1084551E-02  (-0.5813239E-04)
 number of electron      13.9999997 magnetization 
 augmentation part       -2.7863633 magnetization 

 Broyden mixing:
  rms(total) = 0.36235E-02    rms(broyden)= 0.36235E-02
  rms(prec ) = 0.41060E-02
  weight for this iteration     100.00

 eigenvalues of (default mixing * dielectric matrix)
  average eigenvalue GAMMA=   2.0822
  1.0336  2.2441  2.5256  2.5256

 Free energy of the ion-electron system (eV)
  ---------------------------------------------------
  alpha Z        PSCENC =         0.24644749
  Ewald energy   TEWEN  =       336.45058244
  -Hartree energ DENC   =      -942.18622469
  -exchange      EXHF   =         0.00000000
  -V(xc)+E(xc)   XCENC  =        19.55995778
  PAW double counting   =       797.77504821     -785.54520223
  entropy T*S    EENTRO =        -0.00000000
  eigenvalues    EBANDS =      -166.18915448
  atomic energy  EATOM  =       736.89535500
  Solvation  Ediel_sol  =         0.00000000
  ---------------------------------------------------
  free energy    TOTEN  =        -2.99319049 eV

  energy without entropy =       -2.99319049  energy(sigma->0) =       -2.99319049


--------------------------------------------------------------------------------------------------------




--------------------------------------- Iteration      1(  17)  ---------------------------------------


    POTLOK:  cpu time      0.1719: real time      0.1719
    SETDIJ:  cpu time      0.0102: real time      0.0102
    EDDIAG:  cpu time      0.2246: real time      0.2244
  RMM-DIIS:  cpu time      0.2280: real time      0.2230
    ORTHCH:  cpu time      0.0161: real time      0.0163
       DOS:  cpu time      0.0009: real time      0.0009
    CHARGE:  cpu time      0.0597: real time      0.0597
    MIXING:  cpu time      0.0043: real time      0.0043
    --------------------------------------------
      LOOP:  cpu time      0.7157: real time      0.7108

 eigenvalue-minimisations  :   256
 total energy-change (2. order) :-0.1471257E-02  (-0.1765862E-04)
 number of electron      13.9999997 magnetization 
 augmentation part       -2.7865724 magnetization 

 Broyden mixing:
  rms(total) = 0.19042E-02    rms(broyden)= 0.19042E-02
  rms(prec ) = 0.22910E-02
  weight for this iteration     100.00

 eigenvalues of (default mixing * dielectric matrix)
  average eigenvalue GAMMA=   2.0655
  3.2562  0.9283  2.2577  1.9426  1.9426

 Free energy of the ion-electron system (eV)
  ---------------------------------------------------
  alpha Z        PSCENC =         0.24644749
  Ewald energy   TEWEN  =       336.45058244
  -Hartree energ DENC   =      -942.27816963
  -exchange      EXHF   =         0.00000000
  -V(xc)+E(xc)   XCENC  =        19.56121711
  PAW double counting   =       797.03922923     -784.80905623
  entropy T*S    EENTRO =        -0.00000000
  eigenvalues    EBANDS =      -166.10026716
  atomic energy  EATOM  =       736.89535500
  Solvation  Ediel_sol  =         0.00000000
  ---------------------------------------------------
  free energy    TOTEN  =        -2.99466175 eV

  energy without entropy =       -2.99466175  energy(sigma->0) =       -2.99466175


--------------------------------------------------------------------------------------------------------




--------------------------------------- Iteration      1(  18)  ---------------------------------------


    POTLOK:  cpu time      0.1405: real time      0.1559
    SETDIJ:  cpu time      0.0102: real time      0.0102
    EDDIAG:  cpu time      0.2268: real time      0.2266
  RMM-DIIS:  cpu time      0.2289: real time      0.2276
    ORTHCH:  cpu time      0.0219: real time      0.0219
       DOS:  cpu time      0.0032: real time      0.0032
    CHARGE:  cpu time      0.0659: real time      0.0663
    MIXING:  cpu time      0.0071: real time      0.0071
    --------------------------------------------
      LOOP:  cpu time      0.7044: real time      0.7188

 eigenvalue-minimisations  :   256
 total energy-change (2. order) :-0.1046030E-02  (-0.1582686E-04)
 number of electron      13.9999997 magnetization 
 augmentation part       -2.7864493 magnetization 

 Broyden mixing:
  rms(total) = 0.18418E-02    rms(broyden)= 0.18418E-02
  rms(prec ) = 0.20119E-02
  weight for this iteration     100.00

 eigenvalues of (default mixing * dielectric matrix)
  average eigenvalue GAMMA=   2.0765
  4.0575  2.2647  2.2647  2.0741  0.9460  0.8523

 Free energy of the ion-electron system (eV)
  ---------------------------------------------------
  alpha Z        PSCENC =         0.24644749
  Ewald energy   TEWEN  =       336.45058244
  -Hartree energ DENC   =      -942.38961818
  -exchange      EXHF   =         0.00000000
  -V(xc)+E(xc)   XCENC  =        19.56152456
  PAW double counting   =       797.59763391     -785.36736792
  entropy T*S    EENTRO =        -0.00000000
  eigenvalues    EBANDS =      -165.99026507
  atomic energy  EATOM  =       736.89535500
  Solvation  Ediel_sol  =         0.00000000
  ---------------------------------------------------
  free energy    TOTEN  =        -2.99570777 eV

  energy without entropy =       -2.99570777  energy(sigma->0) =       -2.99570777


--------------------------------------------------------------------------------------------------------




--------------------------------------- Iteration      1(  19)  ---------------------------------------


    POTLOK:  cpu time      0.1441: real time      0.1593
    SETDIJ:  cpu time      0.0110: real time      0.0110
    EDDIAG:  cpu time      0.2328: real time      0.2338
  RMM-DIIS:  cpu time      0.2349: real time      0.2317
    ORTHCH:  cpu time      0.0226: real time      0.0226
       DOS:  cpu time      0.0009: real time      0.0009
    CHARGE:  cpu time      0.0591: real time      0.0591
    MIXING:  cpu time      0.0041: real time      0.0041
    --------------------------------------------
      LOOP:  cpu time      0.7096: real time      0.7226

 eigenvalue-minimisations  :   256
 total energy-change (2. order) :-0.8879936E-03  (-0.8457825E-05)
 number of electron      13.9999997 magnetization 
 augmentation part       -2.7864260 magnetization 

 Broyden mixing:
  rms(total) = 0.69383E-03    rms(broyden)= 0.69383E-03
  rms(prec ) = 0.85317E-03
  weight for this iteration     100.00

 eigenvalues of (default mixing * dielectric matrix)
  average eigenvalue GAMMA=   2.2484
  4.6587  2.8456  2.1266  2.1266  2.0729  0.9542  0.9542

 Free energy of the ion-electron system (eV)
  ---------------------------------------------------
  alpha Z        PSCENC =         0.24644749
  Ewald energy   TEWEN  =       336.45058244
  -Hartree energ DENC   =      -942.46299599
  -exchange      EXHF   =         0.00000000
  -V(xc)+E(xc)   XCENC  =        19.56098780
  PAW double counting   =       797.02247355     -784.79207887
  entropy T*S    EENTRO =        -0.00000000
  eigenvalues    EBANDS =      -165.91736720
  atomic energy  EATOM  =       736.89535500
  Solvation  Ediel_sol  =         0.00000000
  ---------------------------------------------------
  free energy    TOTEN  =        -2.99659577 eV

  energy without entropy =       -2.99659577  energy(sigma->0) =       -2.99659577


--------------------------------------------------------------------------------------------------------




--------------------------------------- Iteration      1(  20)  ---------------------------------------


    POTLOK:  cpu time      0.1419: real time      0.1570
    SETDIJ:  cpu time      0.0102: real time      0.0102
    EDDIAG:  cpu time      0.2236: real time      0.2236
  RMM-DIIS:  cpu time      0.2332: real time      0.2296
    ORTHCH:  cpu time      0.0168: real time      0.0168
       DOS:  cpu time      0.0009: real time      0.0009
    CHARGE:  cpu time      0.0601: real time      0.0602
    MIXING:  cpu time      0.0043: real time      0.0043
    --------------------------------------------
      LOOP:  cpu time      0.6912: real time      0.7026

 eigenvalue-minimisations  :   256
 total energy-change (2. order) :-0.6884409E-03  (-0.4541153E-05)
 number of electron      13.9999997 magnetization 
 augmentation part       -2.7864775 magnetization 

 Broyden mixing:
  rms(total) = 0.61935E-03    rms(broyden)= 0.61935E-03
  rms(prec ) = 0.67903E-03
  weight for this iteration     100.00

 eigenvalues of (default mixing * dielectric matrix)
  average eigenvalue GAMMA=   2.3453
  6.2509  3.1034  2.2973  2.2973  1.8071  0.9768  1.0148  1.0148

 Free energy of the ion-electron system (eV)
  ---------------------------------------------------
  alpha Z        PSCENC =         0.24644749
  Ewald energy   TEWEN  =       336.45058244
  -Hartree energ DENC   =      -942.50618443
  -exchange      EXHF   =         0.00000000
  -V(xc)+E(xc)   XCENC  =        19.56006892
  PAW double counting   =       796.72879150     -784.49808725
  entropy T*S    EENTRO =        -0.00000000
  eigenvalues    EBANDS =      -165.87425788
  atomic energy  EATOM  =       736.89535500
  Solvation  Ediel_sol  =         0.00000000
  ---------------------------------------------------
  free energy    TOTEN  =        -2.99728421 eV

  energy without entropy =       -2.99728421  energy(sigma->0) =       -2.99728421


--------------------------------------------------------------------------------------------------------




--------------------------------------- Iteration      1(  21)  ---------------------------------------


    POTLOK:  cpu time      0.1767: real time      0.1766
    SETDIJ:  cpu time      0.0076: real time      0.0101
    EDDIAG:  cpu time      0.2278: real time      0.2272
  RMM-DIIS:  cpu time      0.2267: real time      0.2231
    ORTHCH:  cpu time      0.0157: real time      0.0157
       DOS:  cpu time      0.0010: real time      0.0010
    CHARGE:  cpu time      0.0601: real time      0.0601
    MIXING:  cpu time      0.0045: real time      0.0045
    --------------------------------------------
      LOOP:  cpu time      0.7200: real time      0.7183

 eigenvalue-minimisations  :   256
 total energy-change (2. order) :-0.2958685E-03  (-0.3619079E-05)
 number of electron      13.9999997 magnetization 
 augmentation part       -2.7864607 magnetization 

 Broyden mixing:
  rms(total) = 0.19315E-03    rms(broyden)= 0.19315E-03
  rms(prec ) = 0.24205E-03
  weight for this iteration     100.00

 eigenvalues of (default mixing * dielectric matrix)
  average eigenvalue GAMMA=   2.6059
  7.4605  3.7938  2.6857  2.3724  2.3724  1.7846  1.0696  0.9570  0.9570

 Free energy of the ion-electron system (eV)
  ---------------------------------------------------
  alpha Z        PSCENC =         0.24644749
  Ewald energy   TEWEN  =       336.45058244
  -Hartree energ DENC   =      -942.54573503
  -exchange      EXHF   =         0.00000000
  -V(xc)+E(xc)   XCENC  =        19.55988128
  PAW double counting   =       796.83724374     -784.60655805
  entropy T*S    EENTRO =        -0.00000000
  eigenvalues    EBANDS =      -165.83479696
  atomic energy  EATOM  =       736.89535500
  Solvation  Ediel_sol  =         0.00000000
  ---------------------------------------------------
  free energy    TOTEN  =        -2.99758008 eV

  energy without entropy =       -2.99758008  energy(sigma->0) =       -2.99758008


--------------------------------------------------------------------------------------------------------




--------------------------------------- Iteration      1(  22)  ---------------------------------------


    POTLOK:  cpu time      0.1436: real time      0.1588
    SETDIJ:  cpu time      0.0101: real time      0.0101
    EDDIAG:  cpu time      0.2219: real time      0.2217
  RMM-DIIS:  cpu time      0.2271: real time      0.2237
    ORTHCH:  cpu time      0.0186: real time      0.0186
       DOS:  cpu time      0.0009: real time      0.0009
    CHARGE:  cpu time      0.0613: real time      0.0613
    MIXING:  cpu time      0.0066: real time      0.0066
    --------------------------------------------
      LOOP:  cpu time      0.6901: real time      0.7018

 eigenvalue-minimisations  :   255
 total energy-change (2. order) :-0.2245609E-03  (-0.1112550E-05)
 number of electron      13.9999997 magnetization 
 augmentation part       -2.7864330 magnetization 

 Broyden mixing:
  rms(total) = 0.22594E-03    rms(broyden)= 0.22594E-03
  rms(prec ) = 0.23403E-03
  weight for this iteration     100.00

 eigenvalues of (default mixing * dielectric matrix)
  average eigenvalue GAMMA=   2.4557
  7.8034  4.0041  2.6559  2.3733  2.3733  1.7497  1.0041  0.9875  0.9875  0.6179

 Free energy of the ion-electron system (eV)
  ---------------------------------------------------
  alpha Z        PSCENC =         0.24644749
  Ewald energy   TEWEN  =       336.45058244
  -Hartree energ DENC   =      -942.57164509
  -exchange      EXHF   =         0.00000000
  -V(xc)+E(xc)   XCENC  =        19.56002989
  PAW double counting   =       796.85943230     -784.62892457
  entropy T*S    EENTRO =        -0.00000000
  eigenvalues    EBANDS =      -165.80908211
  atomic energy  EATOM  =       736.89535500
  Solvation  Ediel_sol  =         0.00000000
  ---------------------------------------------------
  free energy    TOTEN  =        -2.99780464 eV

  energy without entropy =       -2.99780464  energy(sigma->0) =       -2.99780464


--------------------------------------------------------------------------------------------------------




--------------------------------------- Iteration      1(  23)  ---------------------------------------


    POTLOK:  cpu time      0.1614: real time      0.1625
    SETDIJ:  cpu time      0.0110: real time      0.0110
    EDDIAG:  cpu time      0.2550: real time      0.2550
  RMM-DIIS:  cpu time      0.2280: real time      0.2250
    ORTHCH:  cpu time      0.0153: real time      0.0154
       DOS:  cpu time      0.0013: real time      0.0013
    CHARGE:  cpu time      0.0601: real time      0.0601
    MIXING:  cpu time      0.0068: real time      0.0079
    --------------------------------------------
      LOOP:  cpu time      0.7389: real time      0.7380

 eigenvalue-minimisations  :   254
 total energy-change (2. order) :-0.2062583E-04  (-0.2277549E-06)
 number of electron      13.9999997 magnetization 
 augmentation part       -2.7864440 magnetization 

 Broyden mixing:
  rms(total) = 0.13156E-03    rms(broyden)= 0.13156E-03
  rms(prec ) = 0.13993E-03
  weight for this iteration     100.00

 eigenvalues of (default mixing * dielectric matrix)
  average eigenvalue GAMMA=   2.4785
  8.1033  4.3462  2.8552  2.5859  2.1190  1.6107  1.6107  1.1672  0.9611  0.9519
  0.9519

 Free energy of the ion-electron system (eV)
  ---------------------------------------------------
  alpha Z        PSCENC =         0.24644749
  Ewald energy   TEWEN  =       336.45058244
  -Hartree energ DENC   =      -942.57319951
  -exchange      EXHF   =         0.00000000
  -V(xc)+E(xc)   XCENC  =        19.55994172
  PAW double counting   =       796.82583588     -784.59526775
  entropy T*S    EENTRO =        -0.00000000
  eigenvalues    EBANDS =      -165.80752054
  atomic energy  EATOM  =       736.89535500
  Solvation  Ediel_sol  =         0.00000000
  ---------------------------------------------------
  free energy    TOTEN  =        -2.99782526 eV

  energy without entropy =       -2.99782526  energy(sigma->0) =       -2.99782526


--------------------------------------------------------------------------------------------------------




--------------------------------------- Iteration      1(  24)  ---------------------------------------


    POTLOK:  cpu time      0.1436: real time      0.1588
    SETDIJ:  cpu time      0.0102: real time      0.0102
    EDDIAG:  cpu time      0.2221: real time      0.2226
  RMM-DIIS:  cpu time      0.2269: real time      0.2238
    ORTHCH:  cpu time      0.0157: real time      0.0160
       DOS:  cpu time      0.0009: real time      0.0009
    CHARGE:  cpu time      0.0602: real time      0.0602
    MIXING:  cpu time      0.0049: real time      0.0049
    --------------------------------------------
      LOOP:  cpu time      0.6844: real time      0.6973

 eigenvalue-minimisations  :   254
 total energy-change (2. order) :-0.5030973E-04  (-0.1039538E-06)
 number of electron      13.9999997 magnetization 
 augmentation part       -2.7864531 magnetization 

 Broyden mixing:
  rms(total) = 0.64461E-04    rms(broyden)= 0.64461E-04
  rms(prec ) = 0.69318E-04
  weight for this iteration     100.00

 eigenvalues of (default mixing * dielectric matrix)
  average eigenvalue GAMMA=   2.5728
  8.7322  5.2081  3.2935  2.6104  2.2992  2.2992  1.7301  0.9899  0.9630  0.9630
  0.8923  0.8923

 Free energy of the ion-electron system (eV)
  ---------------------------------------------------
  alpha Z        PSCENC =         0.24644749
  Ewald energy   TEWEN  =       336.45058244
  -Hartree energ DENC   =      -942.57525619
  -exchange      EXHF   =         0.00000000
  -V(xc)+E(xc)   XCENC  =        19.55980545
  PAW double counting   =       796.77515595     -784.54450270
  entropy T*S    EENTRO =        -0.00000000
  eigenvalues    EBANDS =      -165.80546302
  atomic energy  EATOM  =       736.89535500
  Solvation  Ediel_sol  =         0.00000000
  ---------------------------------------------------
  free energy    TOTEN  =        -2.99787557 eV

  energy without entropy =       -2.99787557  energy(sigma->0) =       -2.99787557


--------------------------------------------------------------------------------------------------------




--------------------------------------- Iteration      1(  25)  ---------------------------------------


    POTLOK:  cpu time      0.1571: real time      0.1573
    SETDIJ:  cpu time      0.0102: real time      0.0102
    EDDIAG:  cpu time      0.2291: real time      0.2290
  RMM-DIIS:  cpu time      0.2255: real time      0.2239
    ORTHCH:  cpu time      0.0227: real time      0.0227
       DOS:  cpu time      0.0014: real time      0.0014
    CHARGE:  cpu time      0.0648: real time      0.0648
    MIXING:  cpu time      0.0074: real time      0.0074
    --------------------------------------------
      LOOP:  cpu time      0.7183: real time      0.7167

 eigenvalue-minimisations  :   253
 total energy-change (2. order) :-0.1951166E-04  (-0.4809712E-07)
 number of electron      13.9999997 magnetization 
 augmentation part       -2.7864602 magnetization 

 Broyden mixing:
  rms(total) = 0.76968E-04    rms(broyden)= 0.76968E-04
  rms(prec ) = 0.78370E-04
  weight for this iteration     100.00

 eigenvalues of (default mixing * dielectric matrix)
  average eigenvalue GAMMA=   2.5793
  8.7254  5.4841  3.5148  2.4003  2.2365  2.2365  1.9664  1.9664  1.1115  1.1115
  0.9497  0.9143  0.9143

 Free energy of the ion-electron system (eV)
  ---------------------------------------------------
  alpha Z        PSCENC =         0.24644749
  Ewald energy   TEWEN  =       336.45058244
  -Hartree energ DENC   =      -942.57664510
  -exchange      EXHF   =         0.00000000
  -V(xc)+E(xc)   XCENC  =        19.55973199
  PAW double counting   =       796.76849662     -784.53780726
  entropy T*S    EENTRO =        -0.00000000
  eigenvalues    EBANDS =      -165.80405626
  atomic energy  EATOM  =       736.89535500
  Solvation  Ediel_sol  =         0.00000000
  ---------------------------------------------------
  free energy    TOTEN  =        -2.99789509 eV

  energy without entropy =       -2.99789509  energy(sigma->0) =       -2.99789509


--------------------------------------------------------------------------------------------------------




--------------------------------------- Iteration      1(  26)  ---------------------------------------


    POTLOK:  cpu time      0.1590: real time      0.1590
    SETDIJ:  cpu time      0.0104: real time      0.0104
    EDDIAG:  cpu time      0.2436: real time      0.2435
  RMM-DIIS:  cpu time      0.2268: real time      0.2244
    ORTHCH:  cpu time      0.0158: real time      0.0165
       DOS:  cpu time      0.0010: real time      0.0009
    CHARGE:  cpu time      0.0595: real time      0.0595
    MIXING:  cpu time      0.0054: real time      0.0054
    --------------------------------------------
      LOOP:  cpu time      0.7213: real time      0.7196

 eigenvalue-minimisations  :   249
 total energy-change (2. order) :-0.8725583E-05  (-0.6668785E-08)
 number of electron      13.9999997 magnetization 
 augmentation part       -2.7864552 magnetization 

 Broyden mixing:
  rms(total) = 0.28987E-04    rms(broyden)= 0.28987E-04
  rms(prec ) = 0.30445E-04
  weight for this iteration     100.00

 eigenvalues of (default mixing * dielectric matrix)
  average eigenvalue GAMMA=   2.6529
  9.1252  6.1744  4.0396  3.1740  2.3868  2.3139  2.3139  1.6028  1.1095  1.0592
  1.0592  0.9315  0.9251  0.9251

 Free energy of the ion-electron system (eV)
  ---------------------------------------------------
  alpha Z        PSCENC =         0.24644749
  Ewald energy   TEWEN  =       336.45058244
  -Hartree energ DENC   =      -942.57880849
  -exchange      EXHF   =         0.00000000
  -V(xc)+E(xc)   XCENC  =        19.55976281
  PAW double counting   =       796.78623971     -784.55559540
  entropy T*S    EENTRO =        -0.00000000
  eigenvalues    EBANDS =      -165.80188738
  atomic energy  EATOM  =       736.89535500
  Solvation  Ediel_sol  =         0.00000000
  ---------------------------------------------------
  free energy    TOTEN  =        -2.99790381 eV

  energy without entropy =       -2.99790381  energy(sigma->0) =       -2.99790381


--------------------------------------------------------------------------------------------------------




--------------------------------------- Iteration      1(  27)  ---------------------------------------


    POTLOK:  cpu time      0.1563: real time      0.1565
    SETDIJ:  cpu time      0.0101: real time      0.0101
    EDDIAG:  cpu time      0.2223: real time      0.2221
  RMM-DIIS:  cpu time      0.2268: real time      0.2248
    ORTHCH:  cpu time      0.0164: real time      0.0164
       DOS:  cpu time      0.0009: real time      0.0009
    CHARGE:  cpu time      0.0599: real time      0.0599
    MIXING:  cpu time      0.0056: real time      0.0056
    --------------------------------------------
      LOOP:  cpu time      0.6984: real time      0.6965

 eigenvalue-minimisations  :   247
 total energy-change (2. order) :-0.5771242E-05  (-0.5019514E-08)
 number of electron      13.9999997 magnetization 
 augmentation part       -2.7864567 magnetization 

 Broyden mixing:
  rms(total) = 0.21956E-04    rms(broyden)= 0.21956E-04
  rms(prec ) = 0.22304E-04
  weight for this iteration     100.00

 eigenvalues of (default mixing * dielectric matrix)
  average eigenvalue GAMMA=   2.6248
  9.2278  6.3770  4.1976  3.0190  2.5575  2.1432  2.1432  1.8978  1.5239  1.5239
  0.9275  0.9275  0.9849  0.9849  0.9367

 Free energy of the ion-electron system (eV)
  ---------------------------------------------------
  alpha Z        PSCENC =         0.24644749
  Ewald energy   TEWEN  =       336.45058244
  -Hartree energ DENC   =      -942.57929800
  -exchange      EXHF   =         0.00000000
  -V(xc)+E(xc)   XCENC  =        19.55974310
  PAW double counting   =       796.78267912     -784.55203349
  entropy T*S    EENTRO =        -0.00000000
  eigenvalues    EBANDS =      -165.80138525
  atomic energy  EATOM  =       736.89535500
  Solvation  Ediel_sol  =         0.00000000
  ---------------------------------------------------
  free energy    TOTEN  =        -2.99790958 eV

  energy without entropy =       -2.99790958  energy(sigma->0) =       -2.99790958


--------------------------------------------------------------------------------------------------------




--------------------------------------- Iteration      1(  28)  ---------------------------------------


    POTLOK:  cpu time      0.1416: real time      0.1592
    SETDIJ:  cpu time      0.0102: real time      0.0102
    EDDIAG:  cpu time      0.2198: real time      0.2231
  RMM-DIIS:  cpu time      0.2255: real time      0.2233
    ORTHCH:  cpu time      0.0157: real time      0.0157
       DOS:  cpu time      0.0010: real time      0.0010
    CHARGE:  cpu time      0.0600: real time      0.0600
    MIXING:  cpu time      0.0056: real time      0.0055
    --------------------------------------------
      LOOP:  cpu time      0.6794: real time      0.6981

 eigenvalue-minimisations  :   244
 total energy-change (2. order) :-0.1287965E-05  (-0.8150689E-09)
 number of electron      13.9999997 magnetization 
 augmentation part       -2.7864578 magnetization 

 Broyden mixing:
  rms(total) = 0.58809E-05    rms(broyden)= 0.58809E-05
  rms(prec ) = 0.64238E-05
  weight for this iteration     100.00

 eigenvalues of (default mixing * dielectric matrix)
  average eigenvalue GAMMA=   2.7112
  9.4784  7.0747  4.7089  3.6701  2.6158  2.6158  2.2458  2.2458  1.5690  1.1886
  1.1886  1.0024  0.9674  0.9674  0.9201  0.9201

 Free energy of the ion-electron system (eV)
  ---------------------------------------------------
  alpha Z        PSCENC =         0.24644749
  Ewald energy   TEWEN  =       336.45058244
  -Hartree energ DENC   =      -942.57933281
  -exchange      EXHF   =         0.00000000
  -V(xc)+E(xc)   XCENC  =        19.55974533
  PAW double counting   =       796.77835114     -784.54770076
  entropy T*S    EENTRO =        -0.00000000
  eigenvalues    EBANDS =      -165.80135871
  atomic energy  EATOM  =       736.89535500
  Solvation  Ediel_sol  =         0.00000000
  ---------------------------------------------------
  free energy    TOTEN  =        -2.99791087 eV

  energy without entropy =       -2.99791087  energy(sigma->0) =       -2.99791087


--------------------------------------------------------------------------------------------------------




--------------------------------------- Iteration      1(  29)  ---------------------------------------


    POTLOK:  cpu time      0.1432: real time      0.1606
    SETDIJ:  cpu time      0.0102: real time      0.0102
    EDDIAG:  cpu time      0.2221: real time      0.2224
  RMM-DIIS:  cpu time      0.2262: real time      0.2236
    ORTHCH:  cpu time      0.0159: real time      0.0159
       DOS:  cpu time      0.0009: real time      0.0009
    CHARGE:  cpu time      0.0596: real time      0.0596
    MIXING:  cpu time      0.0055: real time      0.0055
    --------------------------------------------
      LOOP:  cpu time      0.6837: real time      0.6988

 eigenvalue-minimisations  :   247
 total energy-change (2. order) :-0.1142848E-05  (-0.1167923E-08)
 number of electron      13.9999997 magnetization 
 augmentation part       -2.7864578 magnetization 

 Broyden mixing:
  rms(total) = 0.13887E-04    rms(broyden)= 0.13887E-04
  rms(prec ) = 0.14012E-04
  weight for this iteration     100.00

 eigenvalues of (default mixing * dielectric matrix)
  average eigenvalue GAMMA=   2.6560
  9.5847  7.1451  4.9220  3.4923  3.0067  2.4149  2.2780  2.2780  1.5791  1.3334
  1.3334  1.0197  1.0039  0.9767  0.9767  0.9040  0.9040

 Free energy of the ion-electron system (eV)
  ---------------------------------------------------
  alpha Z        PSCENC =         0.24644749
  Ewald energy   TEWEN  =       336.45058244
  -Hartree energ DENC   =      -942.57964279
  -exchange      EXHF   =         0.00000000
  -V(xc)+E(xc)   XCENC  =        19.55975681
  PAW double counting   =       796.77624098     -784.54559389
  entropy T*S    EENTRO =        -0.00000000
  eigenvalues    EBANDS =      -165.80105806
  atomic energy  EATOM  =       736.89535500
  Solvation  Ediel_sol  =         0.00000000
  ---------------------------------------------------
  free energy    TOTEN  =        -2.99791201 eV

  energy without entropy =       -2.99791201  energy(sigma->0) =       -2.99791201


--------------------------------------------------------------------------------------------------------




--------------------------------------- Iteration      1(  30)  ---------------------------------------


    POTLOK:  cpu time      0.1439: real time      0.1592
    SETDIJ:  cpu time      0.0101: real time      0.0101
    EDDIAG:  cpu time      0.2210: real time      0.2211
  RMM-DIIS:  cpu time      0.2210: real time      0.2231
    ORTHCH:  cpu time      0.0157: real time      0.0157
       DOS:  cpu time      0.0009: real time      0.0009
    --------------------------------------------
      LOOP:  cpu time      0.6126: real time      0.6302

 eigenvalue-minimisations  :   241
 total energy-change (2. order) :-0.1821281E-06  ( 0.0000000E+00)
 number of electron      13.9999997 magnetization 
 augmentation part       -2.7864578 magnetization 

 Free energy of the ion-electron system (eV)
  ---------------------------------------------------
  alpha Z        PSCENC =         0.24644749
  Ewald energy   TEWEN  =       336.45058244
  -Hartree energ DENC   =      -942.57984822
  -exchange      EXHF   =         0.00000000
  -V(xc)+E(xc)   XCENC  =        19.55975905
  PAW double counting   =       796.77897367     -784.54832738
  entropy T*S    EENTRO =        -0.00000000
  eigenvalues    EBANDS =      -165.80085426
  atomic energy  EATOM  =       736.89535500
  Solvation  Ediel_sol  =         0.00000000
  ---------------------------------------------------
  free energy    TOTEN  =        -2.99791220 eV

  energy without entropy =       -2.99791220  energy(sigma->0) =       -2.99791220


--------------------------------------------------------------------------------------------------------




 average (electrostatic) potential at core
  the test charge radii are     1.0178
  (the norm of the test charge is              1.0000)
       1 -71.6091       2 -71.6091
 
 
 
 E-fermi :  -6.4119     XC(G=0):  -0.1716     alpha+bet : -0.0566

 Fermi energy:        -6.4118531503

 k-point     1 :       0.0000    0.0000    0.0000
  band No.  band energies     occupation 
      1     -22.0119      2.00000
      2     -19.0540      2.00000
      3     -10.8206      2.00000
      4      -8.7970      2.00000
      5      -8.7960      2.00000
      6      -6.7109      2.00000
      7      -6.7100      2.00000
      8      -4.4275      0.00000
      9      -0.5693      0.00000
     10       0.0387      0.00000
     11       0.0445      0.00000
     12       0.1965      0.00000
     13       0.1967      0.00000
     14       0.3319      0.00000
     15       0.4176      0.00000
     16       0.4761      0.00000
     17       0.5284      0.00000
     18       0.5638      0.00000
     19       0.5708      0.00000
     20       0.5980      0.00000
     21       0.6072      0.00000
     22       0.7264      0.00000
     23       0.7326      0.00000
     24       0.7806      0.00000
     25       0.7910      0.00000
     26       0.9052      0.00000
     27       0.9734      0.00000
     28       1.0474      0.00000
     29       1.0820      0.00000
     30       1.1412      0.00000
     31       1.1595      0.00000
     32       1.2498      0.00000
     33       1.3025      0.00000
     34       1.3890      0.00000
     35       1.4720      0.00000
     36       1.5309      0.00000
     37       1.5828      0.00000
     38       1.5876      0.00000
     39       1.6782      0.00000
     40       1.6845      0.00000
     41       1.7540      0.00000
     42       1.8013      0.00000
     43       1.8179      0.00000
     44       1.8323      0.00000
     45       1.8401      0.00000
     46       1.8642      0.00000
     47       1.9429      0.00000
     48       1.9882      0.00000
     49       1.9992      0.00000
     50       2.0005      0.00000
     51       2.0378      0.00000
     52       2.0582      0.00000
     53       2.0785      0.00000
     54       2.0918      0.00000
     55       2.1171      0.00000
     56       2.1370      0.00000
     57       2.1724      0.00000
     58       2.1823      0.00000
     59       2.1927      0.00000
     60       2.2125      0.00000
     61       2.2160      0.00000
     62       2.2199      0.00000
     63       2.2380      0.00000
     64       2.2669      0.00000
     65       2.2871      0.00000
     66       2.3183      0.00000
     67       2.3310      0.00000
     68       2.3436      0.00000
     69       2.3501      0.00000
     70       2.3506      0.00000
     71       2.3535      0.00000
     72       2.3540      0.00000
     73       2.3721      0.00000
     74       2.3734      0.00000
     75       2.3911      0.00000
     76       2.3911      0.00000
     77       2.3964      0.00000
     78       2.4011      0.00000
     79       2.4131      0.00000
     80       2.4895      0.00000
     81       2.4986      0.00000
     82       2.5054      0.00000
     83       2.5203      0.00000
     84       2.5299      0.00000
     85       2.5309      0.00000
     86       2.5475      0.00000
     87       2.5679      0.00000
     88       2.5848      0.00000
     89       2.5995      0.00000
     90       2.6704      0.00000
     91       2.6846      0.00000
     92       2.6866      0.00000
     93       2.7182      0.00000
     94       2.7224      0.00000
     95       2.7382      0.00000
     96       2.7901      0.00000
     97       2.7977      0.00000
[...]
  ---------------------------------------------------
  free energy    TOTEN  =        -3.00218626 eV

  energy without entropy =       -3.00218626  energy(sigma->0) =       -3.00218626


--------------------------------------------------------------------------------------------------------




--------------------------------------- Iteration      3(   5)  ---------------------------------------


    POTLOK:  cpu time      0.1420: real time      0.1584
    SETDIJ:  cpu time      0.0102: real time      0.0102
    EDDIAG:  cpu time      0.2189: real time      0.2197
  RMM-DIIS:  cpu time      0.2234: real time      0.2210
    ORTHCH:  cpu time      0.0158: real time      0.0158
       DOS:  cpu time      0.0009: real time      0.0009
    CHARGE:  cpu time      0.0592: real time      0.0593
    MIXING:  cpu time      0.0041: real time      0.0041
    --------------------------------------------
      LOOP:  cpu time      0.6744: real time      0.6892

 eigenvalue-minimisations  :   256
 total energy-change (2. order) : 0.1305965E-04  (-0.1574888E-05)
 number of electron      13.9999996 magnetization 
 augmentation part       -2.7858904 magnetization 

 Broyden mixing:
  rms(total) = 0.52641E-02    rms(broyden)= 0.52641E-02
  rms(prec ) = 0.52883E-02
  weight for this iteration     100.00

 eigenvalues of (default mixing * dielectric matrix)
  average eigenvalue GAMMA=   1.2093
  2.5178  1.3049  0.5072  0.5072

 Free energy of the ion-electron system (eV)
  ---------------------------------------------------
  alpha Z        PSCENC =         0.24644749
  Ewald energy   TEWEN  =       333.03509716
  -Hartree energ DENC   =      -939.36918859
  -exchange      EXHF   =         0.00000000
  -V(xc)+E(xc)   XCENC  =        19.50211364
  PAW double counting   =       781.01885596     -768.77076324
  entropy T*S    EENTRO =        -0.00000000
  eigenvalues    EBANDS =      -165.56009063
  atomic energy  EATOM  =       736.89535500
  Solvation  Ediel_sol  =         0.00000000
  ---------------------------------------------------
  free energy    TOTEN  =        -3.00217320 eV

  energy without entropy =       -3.00217320  energy(sigma->0) =       -3.00217320


--------------------------------------------------------------------------------------------------------




--------------------------------------- Iteration      3(   6)  ---------------------------------------


    POTLOK:  cpu time      0.1564: real time      0.1567
    SETDIJ:  cpu time      0.0101: real time      0.0101
    EDDIAG:  cpu time      0.2231: real time      0.2228
  RMM-DIIS:  cpu time      0.2283: real time      0.2246
    ORTHCH:  cpu time      0.0156: real time      0.0156
       DOS:  cpu time      0.0009: real time      0.0009
    CHARGE:  cpu time      0.0594: real time      0.0594
    MIXING:  cpu time      0.0040: real time      0.0040
    --------------------------------------------
      LOOP:  cpu time      0.6979: real time      0.6941

 eigenvalue-minimisations  :   256
 total energy-change (2. order) : 0.8397754E-05  (-0.3487527E-06)
 number of electron      13.9999996 magnetization 
 augmentation part       -2.7858492 magnetization 

 Broyden mixing:
  rms(total) = 0.44169E-02    rms(broyden)= 0.44169E-02
  rms(prec ) = 0.44360E-02
  weight for this iteration     100.00

 eigenvalues of (default mixing * dielectric matrix)
  average eigenvalue GAMMA=   1.5407
  2.5630  1.8455  1.8455  0.4083  1.0411

 Free energy of the ion-electron system (eV)
  ---------------------------------------------------
  alpha Z        PSCENC =         0.24644749
  Ewald energy   TEWEN  =       333.03509716
  -Hartree energ DENC   =      -939.37196663
  -exchange      EXHF   =         0.00000000
  -V(xc)+E(xc)   XCENC  =        19.50200981
  PAW double counting   =       781.27843751     -769.03029482
  entropy T*S    EENTRO =        -0.00000000
  eigenvalues    EBANDS =      -165.55725033
  atomic energy  EATOM  =       736.89535500
  Solvation  Ediel_sol  =         0.00000000
  ---------------------------------------------------
  free energy    TOTEN  =        -3.00216480 eV

  energy without entropy =       -3.00216480  energy(sigma->0) =       -3.00216480


--------------------------------------------------------------------------------------------------------




--------------------------------------- Iteration      3(   7)  ---------------------------------------


    POTLOK:  cpu time      0.1564: real time      0.1563
    SETDIJ:  cpu time      0.0102: real time      0.0102
    EDDIAG:  cpu time      0.2223: real time      0.2222
  RMM-DIIS:  cpu time      0.2296: real time      0.2250
    ORTHCH:  cpu time      0.0160: real time      0.0167
       DOS:  cpu time      0.0010: real time      0.0009
    --------------------------------------------
      LOOP:  cpu time      0.6355: real time      0.6314

 eigenvalue-minimisations  :   256
 total energy-change (2. order) :-0.4034649E-06  (-0.6469137E-07)
 number of electron      13.9999996 magnetization 
 augmentation part       -2.7858492 magnetization 

 Free energy of the ion-electron system (eV)
  ---------------------------------------------------
  alpha Z        PSCENC =         0.24644749
  Ewald energy   TEWEN  =       333.03509716
  -Hartree energ DENC   =      -939.37221391
  -exchange      EXHF   =         0.00000000
  -V(xc)+E(xc)   XCENC  =        19.50200951
  PAW double counting   =       781.45374813     -769.20564283
  entropy T*S    EENTRO =        -0.00000000
  eigenvalues    EBANDS =      -165.55696577
  atomic energy  EATOM  =       736.89535500
  Solvation  Ediel_sol  =         0.00000000
  ---------------------------------------------------
  free energy    TOTEN  =        -3.00216521 eV

  energy without entropy =       -3.00216521  energy(sigma->0) =       -3.00216521


--------------------------------------------------------------------------------------------------------




 average (electrostatic) potential at core
  the test charge radii are     1.0178
  (the norm of the test charge is              1.0000)
       1 -71.6178       2 -71.6178
 
 
 
 E-fermi :  -6.4472     XC(G=0):  -0.1743     alpha+bet : -0.0566

 Fermi energy:        -6.4471937917

 k-point     1 :       0.0000    0.0000    0.0000
  band No.  band energies     occupation 
      1     -21.9101      2.00000
      2     -19.1052      2.00000
      3     -10.7766      2.00000
      4      -8.7459      2.00000
      5      -8.7449      2.00000
      6      -6.7483      2.00000
      7      -6.7474      2.00000
      8      -4.5704      0.00000
      9      -0.5707      0.00000
     10       0.0380      0.00000
     11       0.0450      0.00000
     12       0.1875      0.00000
     13       0.2061      0.00000
     14       0.3236      0.00000
     15       0.4100      0.00000
     16       0.4751      0.00000
     17       0.5388      0.00000
     18       0.5630      0.00000
     19       0.5674      0.00000
     20       0.5936      0.00000
     21       0.6035      0.00000
     22       0.7242      0.00000
     23       0.7245      0.00000
     24       0.7848      0.00000
     25       0.7877      0.00000
     26       0.9101      0.00000
     27       0.9682      0.00000
     28       1.0447      0.00000
     29       1.0775      0.00000
     30       1.1360      0.00000
     31       1.1576      0.00000
     32       1.2470      0.00000
     33       1.3124      0.00000
     34       1.3907      0.00000
     35       1.4717      0.00000
     36       1.5232      0.00000
     37       1.5816      0.00000
     38       1.5881      0.00000
     39       1.6734      0.00000
     40       1.6830      0.00000
     41       1.7615      0.00000
     42       1.7958      0.00000
     43       1.8156      0.00000
     44       1.8333      0.00000
     45       1.8373      0.00000
     46       1.8643      0.00000
     47       1.9467      0.00000
     48       1.9866      0.00000
     49       1.9891      0.00000
     50       2.0103      0.00000
     51       2.0247      0.00000
     52       2.0562      0.00000
     53       2.0747      0.00000
     54       2.0903      0.00000
     55       2.1153      0.00000
     56       2.1342      0.00000
     57       2.1676      0.00000
     58       2.1676      0.00000
     59       2.1838      0.00000
     60       2.2116      0.00000
     61       2.2149      0.00000
     62       2.2181      0.00000
     63       2.2337      0.00000
     64       2.2686      0.00000
     65       2.2862      0.00000
     66       2.3192      0.00000
     67       2.3363      0.00000
     68       2.3423      0.00000
     69       2.3444      0.00000
     70       2.3470      0.00000
     71       2.3520      0.00000
     72       2.3559      0.00000
     73       2.3682      0.00000
     74       2.3689      0.00000
     75       2.3864      0.00000
     76       2.3866      0.00000
     77       2.3918      0.00000
     78       2.4007      0.00000
     79       2.4109      0.00000
     80       2.4800      0.00000
     81       2.5012      0.00000
     82       2.5031      0.00000
     83       2.5136      0.00000
     84       2.5249      0.00000
     85       2.5253      0.00000
     86       2.5494      0.00000
     87       2.5635      0.00000
     88       2.5813      0.00000
     89       2.6002      0.00000
     90       2.6599      0.00000
     91       2.6776      0.00000
     92       2.6849      0.00000
     93       2.7149      0.00000
     94       2.7206      0.00000
     95       2.7333      0.00000
     96       2.7835      0.00000
     97       2.7944      0.00000
     98       2.7979      0.00000
     99       2.8060      0.00000
    100       2.8440      0.00000
    101       2.8573      0.00000
    102       2.8955      0.00000
    103       2.9160      0.00000
    104       2.9257      0.00000
    105       2.9292      0.00000
    106       2.9490      0.00000
    107       2.9594      0.00000
    108       2.9803      0.00000
    109       2.9822      0.00000
    110       3.0228      0.00000
    111       3.0934      0.00000
    112       3.1437      0.00000
    113       3.1721      0.00000
    114       3.2131      0.00000
    115       3.2374      0.00000
    116       3.2519      0.00000
    117       3.2613      0.00000
    118       3.2669      0.00000
    119       3.2889      0.00000
    120       3.2921      0.00000
    121       3.3454      0.00000
    122       3.4155      0.00000
    123       3.4223      0.00000
    124       3.4396      0.00000
    125       3.4671      0.00000
    126       3.4861      0.00000
    127       3.5117      0.00000
    128       3.5826      0.00000


--------------------------------------------------------------------------------------------------------


 soft charge-density along one line, spin component           1
         0         1         2         3         4         5         6         7         8         9
 total charge-density along one line
 
 pseudopotential strength for first ion, spin component:           1
 38.870  40.378   0.000  -0.074  -0.000   0.000  -0.097  -0.000
 40.378  41.947   0.000  -0.077  -0.000   0.000  -0.101  -0.000
  0.000   0.000   8.808  -0.000   0.000  11.392  -0.000   0.000
 -0.074  -0.077  -0.000   8.865   0.000  -0.000  11.464   0.000
 -0.000  -0.000   0.000   0.000   8.808   0.000   0.000  11.392
  0.000   0.000  11.392  -0.000   0.000  14.756  -0.000   0.000
 -0.097  -0.101  -0.000  11.464   0.000  -0.000  14.848   0.000
 -0.000  -0.000   0.000   0.000  11.392   0.000   0.000  14.756
  0.000   0.000  -0.000  -0.000   0.000  -0.000  -0.000   0.000
 -0.000  -0.000  -0.018   0.000  -0.000  -0.023   0.000  -0.000
  0.051   0.053  -0.000  -0.020   0.000  -0.000  -0.026   0.000
  0.000   0.000  -0.000  -0.000  -0.018  -0.000  -0.000  -0.023
 -0.000  -0.000  -0.000  -0.000  -0.000  -0.000  -0.000  -0.000
 total augmentation occupancy for first ion, spin component:           1
  6.184  -4.013  -0.000   3.486   0.000   0.000  -1.185   0.000   0.000   0.000  -0.276  -0.000  -0.000
 -4.013   3.841   0.000  -3.174  -0.000  -0.000   1.119  -0.000  -0.000  -0.000   0.302   0.000   0.000
 -0.000   0.000   2.092  -0.000   0.000  -0.071   0.000  -0.000  -0.000  -0.057  -0.000   0.000  -0.000
  3.486  -3.174  -0.000   2.855  -0.000   0.000  -0.907   0.000   0.000   0.000  -0.257  -0.000  -0.000
  0.000  -0.000   0.000  -0.000   2.090   0.000   0.000  -0.070   0.000  -0.000   0.000  -0.057  -0.000
  0.000  -0.000  -0.071   0.000   0.000   0.050  -0.000   0.000   0.000   0.025  -0.000   0.000  -0.000
 -1.185   1.119   0.000  -0.907   0.000  -0.000   0.328  -0.000  -0.000  -0.000   0.087  -0.000   0.000
  0.000  -0.000  -0.000   0.000  -0.070   0.000  -0.000   0.050   0.000   0.000  -0.000   0.025   0.000
  0.000  -0.000  -0.000   0.000   0.000   0.000  -0.000   0.000   0.000   0.000  -0.000  -0.000   0.000
  0.000  -0.000  -0.057   0.000  -0.000   0.025  -0.000   0.000   0.000   0.012  -0.000   0.000   0.000
 -0.276   0.302  -0.000  -0.257   0.000  -0.000   0.087  -0.000  -0.000  -0.000   0.025  -0.000   0.000
 -0.000   0.000   0.000  -0.000  -0.057   0.000  -0.000   0.025  -0.000   0.000  -0.000   0.012   0.000
 -0.000   0.000  -0.000  -0.000  -0.000  -0.000   0.000   0.000   0.000   0.000   0.000   0.000   0.000


------------------------ aborting loop because EDIFF is reached ----------------------------------------


    CHARGE:  cpu time      0.0591: real time      0.0595
    FORLOC:  cpu time      0.0020: real time      0.0020
    FORNL :  cpu time      0.0960: real time      0.0960
    STRESS:  cpu time      0.2785: real time      0.2783
    FORCOR:  cpu time      0.1167: real time      0.1167
    FORHAR:  cpu time      0.0241: real time      0.0241
    MIXING:  cpu time      0.0036: real time      0.0036
    OFIELD:  cpu time      0.0002: real time      0.0002

  Hirshfeld charges:
            ion         q(e)     
   ------------------------------
      1     Br       0.00000251
      2     Br      -0.00000251

  Tkatchenko/Scheffler method for vdW energy calculation
  ---------------------------------------------------------------------------------------------

  Parameters of vdW forcefield:
            C6ts              R0ts           ALPHAts        RELVOL
            (au)              (au)            (au)                
   ---------------------------------------------------------------
   Br        156.688          3.909         19.669          0.98346371
   Br        156.688          3.909         19.669          0.98346367

  Number of pair interactions contributing to vdW energy:     167
  Edisp (eV):   -0.00080
    FORVDW:  cpu time      0.1054: real time      0.1056

  FORCE on cell =-STRESS in cart. coord.  units (eV):
  Direction    XX          YY          ZZ          XY          YZ          ZX
  --------------------------------------------------------------------------------------
  Alpha Z     0.24645     0.24645     0.24645
  Ewald     129.59601   323.64817  -120.20902    -0.00000    -0.00000     0.01816
  Hartree   382.82427   569.32462   -12.71778     0.00000    -0.00000     0.00933
  E(xc)     -52.22798   -52.22832   -50.97579     0.00000     0.00000     0.00007
  Local    -761.35613 -1141.92405   -68.69132    -0.00001     0.00002    -0.02474
  n-local   102.25116   102.25487    96.61686     0.00000    -0.00001     0.00357
  augment   -13.60824   -13.60918    -9.12560     0.00000    -0.00000     0.00044
  Kinetic   212.29761   212.32716   164.85431    -0.00000     0.00000    -0.00279
  Fock        0.00000     0.00000     0.00000     0.00000     0.00000     0.00000
  vdW        -0.00016    -0.00345     0.00097    -0.00000    -0.00000     0.00000
  -------------------------------------------------------------------------------------
  Total       0.02299     0.03628    -0.00094    -0.00000     0.00001     0.00404
  in kB       0.00497     0.00785    -0.00020    -0.00000     0.00000     0.00087
  external pressure =        0.00 kB  Pullay stress =        0.00 kB


 VOLUME and BASIS-vectors are now :
 -----------------------------------------------------------------------------
  energy-cutoff  :      500.00
  volume of cell :     7407.05
      direct lattice vectors                 reciprocal lattice vectors
    17.127099991  0.000000000  0.000000000     0.058387001  0.000000000  0.002656447
     0.000000000  9.178700447  0.000000000     0.000000000  0.108947885  0.000000000
    -2.143705240  0.000000000 47.117259241     0.000000000  0.000000000  0.021223645

  length of vectors
    17.127099991  9.178700447 47.166000366     0.058447400  0.108947885  0.021223645


 FORCES acting on ions
    electron-ion (+dipol)            ewald-force                    non-local-force                 convergence-correction
 -----------------------------------------------------------------------------------------------
   -.723E-02 0.307E-03 -.134E+03   0.800E-02 -.979E-06 0.139E+03   -.219E-02 -.788E-04 -.451E+01   0.476E-03 -.229E-03 0.876E-01
   0.708E-02 0.271E-03 0.134E+03   -.800E-02 0.979E-06 -.139E+03   0.222E-02 -.631E-04 0.451E+01   -.350E-03 -.211E-03 -.874E-01
 -----------------------------------------------------------------------------------------------
   -.157E-03 0.578E-03 -.198E-03   -.694E-16 -.282E-15 0.000E+00   0.292E-04 -.142E-03 0.208E-04   0.126E-03 -.440E-03 0.172E-03
 
 
 POSITION                                       TOTAL-FORCE (eV/Angst)
 -----------------------------------------------------------------------------------
      0.00007     -0.00000      1.15270        -0.000948      0.000001     -0.001548
     14.98333      0.00000     45.96456         0.000948     -0.000001      0.001548
 -----------------------------------------------------------------------------------
    total drift:                               -0.000002     -0.000004     -0.000005


--------------------------------------------------------------------------------------------------------



  FREE ENERGIE OF THE ION-ELECTRON SYSTEM (eV)
  ---------------------------------------------------
  free  energy   TOTEN  =        -3.00296380 eV

  energy  without entropy=       -3.00296380  energy(sigma->0) =       -3.00296380
 
 d Force = 0.5801356E-03[ 0.140E-04, 0.115E-02]  d Energy = 0.6272337E-03-0.471E-04
 d Force =-0.1241472E+01[-0.125E+01,-0.124E+01]  d Ewald  =-0.1241463E+01-0.897E-05


--------------------------------------------------------------------------------------------------------


    POTLOK:  cpu time      0.1596: real time      0.1595


--------------------------------------------------------------------------------------------------------




--------------------------------------------------------------------------------------------------------


  
 reached required accuracy - stopping structural energy minimisation
 writing wavefunctions
     LOOP+:  cpu time     10.1071: real time     10.1634
    4ORBIT:  cpu time      0.0000: real time      0.0000

 total amount of memory used by VASP MPI-rank0    58127. kBytes
=======================================================================

   base      :      30000. kBytes
   nonlr-proj:        112. kBytes
   fftplans  :      11675. kBytes
   grid      :      15577. kBytes
   one-center:          8. kBytes
   wavefun   :        755. kBytes
 
  
  
 General timing and accounting informations for this job:
 ========================================================
  
                  Total CPU time used (sec):      250.843
                            User time (sec):      213.220
                          System time (sec):       37.623
                         Elapsed time (sec):      252.561
  
                   Maximum memory used (kb):     1287524.
                   Average memory used (kb):          N/A
  
                          Minor page faults:        86018
                          Major page faults:            0
                 Voluntary context switches:        12708
