 ----------------------------------------------------
    OOO  PPPP  EEEEE N   N M   M PPPP
   O   O P   P E     NN  N MM MM P   P
   O   O PPPP  EEEEE N N N M M M PPPP   -- VERSION
   O   O P     E     N  NN M   M P
    OOO  P     EEEEE N   N M   M P
 ----------------------------------------------------
 running  512 mpi-ranks, with    1 threads/rank
 distrk:  each k-point on  512 cores,    1 groups
 distr:  one band on    4 cores,  128 groups
 vasp.6.3.2 27Jun22 (build Nov 12 2024 19:13:04) complex                        
  
 POSCAR found type information on POSCAR MnBrN C H 
 POSCAR found :  5 types and     634 ions
 scaLAPACK will be used
 LDA part: xc-table for Pade appr. of Perdew
 POSCAR, INCAR and KPOINTS ok, starting setup
 FFT: planning ... GRIDC
 FFT: planning ... GRID_SOFT
 FFT: planning ... GRID
 WAVECAR not read
 entering main loop
       N       E                     dE             d eps       ncg     rms          rms(c)
RMM:   1     0.171748371639E+05    0.17175E+05   -0.61105E+05  2560   0.101E+03
RMM:   2     0.280123893597E+04   -0.14374E+05   -0.17137E+05  2560   0.247E+02
RMM:   3    -0.117914227989E+04   -0.39804E+04   -0.54941E+04  2560   0.140E+02
RMM:   4    -0.315518917298E+04   -0.19760E+04   -0.17876E+04  2560   0.993E+01
RMM:   5    -0.367315642033E+04   -0.51797E+03   -0.48841E+03  2560   0.540E+01
RMM:   6    -0.383451739063E+04   -0.16136E+03   -0.14279E+03  2560   0.311E+01
RMM:   7    -0.388959993502E+04   -0.55083E+02   -0.49890E+02  2560   0.178E+01
RMM:   8    -0.391304079596E+04   -0.23441E+02   -0.20050E+02  2560   0.114E+01
RMM:   9    -0.392699177439E+04   -0.13951E+02   -0.13362E+02  6075   0.666E+00
RMM:  10    -0.393032360548E+04   -0.33318E+01   -0.29742E+01  6966   0.297E+00
RMM:  11    -0.393093173591E+04   -0.60813E+00   -0.47696E+00  7452   0.102E+00
RMM:  12    -0.393105213789E+04   -0.12040E+00   -0.97007E-01  7724   0.345E-01    0.189E+02
RMM:  13    -0.487323390446E+04   -0.94218E+03   -0.55728E+03  8752   0.575E+01    0.385E+02
RMM:  14    -0.414651943070E+04    0.72671E+03   -0.74799E+02  8525   0.185E+01    0.227E+02
RMM:  15    -0.605840604933E+04   -0.19119E+04   -0.31108E+03  8660   0.234E+01    0.202E+02
RMM:  16    -0.403673140868E+04    0.20217E+04   -0.51258E+02  8288   0.107E+01    0.152E+02
RMM:  17    -0.373002741320E+04    0.30670E+03   -0.14481E+02  7691   0.695E+00    0.127E+02
RMM:  18    -0.371749845113E+04    0.12529E+02   -0.22645E+02  7429   0.964E+00    0.117E+02
RMM:  19    -0.369042331605E+04    0.27075E+02   -0.76572E+01  6790   0.570E+00    0.121E+02
RMM:  20    -0.361831729297E+04    0.72106E+02   -0.43286E+01  6532   0.379E+00    0.955E+01
RMM:  21    -0.363010655297E+04   -0.11789E+02   -0.23044E+01  6358   0.286E+00    0.103E+02
RMM:  22    -0.360356751690E+04    0.26539E+02   -0.13168E+01  6501   0.230E+00    0.935E+01
RMM:  23    -0.359019592437E+04    0.13372E+02   -0.73240E+00  5952   0.199E+00    0.920E+01
RMM:  24    -0.360193907464E+04   -0.11743E+02   -0.15978E+01  6282   0.222E+00    0.975E+01
RMM:  25    -0.358525592141E+04    0.16683E+02   -0.13667E+01  6292   0.222E+00    0.872E+01
RMM:  26    -0.358336319161E+04    0.18927E+01   -0.58791E+00  5982   0.166E+00    0.910E+01
RMM:  27    -0.357295798641E+04    0.10405E+02   -0.38438E+00  5887   0.142E+00    0.701E+01
RMM:  28    -0.357246796620E+04    0.49002E+00   -0.66358E-01  5276   0.964E-01    0.739E+01
RMM:  29    -0.357221588398E+04    0.25208E+00   -0.15023E-01  5239   0.441E-01    0.719E+01
RMM:  30    -0.357166044323E+04    0.55544E+00   -0.12870E-01  5256   0.285E-01    0.700E+01
RMM:  31    -0.357198885341E+04   -0.32841E+00   -0.14209E-01  5339   0.366E-01    0.695E+01
RMM:  32    -0.357199254140E+04   -0.36880E-02   -0.87153E-02  5254   0.347E-01    0.699E+01
RMM:  33    -0.357183959975E+04    0.15294E+00   -0.23553E-02  5173   0.180E-01    0.693E+01
RMM:  34    -0.357162523432E+04    0.21437E+00   -0.32698E-02  5357   0.145E-01    0.670E+01
RMM:  35    -0.357153823066E+04    0.87004E-01   -0.51013E-02  5472   0.234E-01    0.672E+01
RMM:  36    -0.357142843593E+04    0.10979E+00   -0.22205E-02  5369   0.177E-01    0.667E+01
RMM:  37    -0.357061542027E+04    0.81302E+00   -0.14648E-01  6372   0.228E-01    0.663E+01
RMM:  38    -0.357088277448E+04   -0.26735E+00   -0.26754E-01  7115   0.524E-01    0.654E+01
RMM:  39    -0.357107911012E+04   -0.19634E+00   -0.98248E-02  6326   0.346E-01    0.664E+01
RMM:  40    -0.357121622836E+04   -0.13712E+00   -0.62497E-02  6285   0.268E-01    0.688E+01
RMM:  41    -0.357139630540E+04   -0.18008E+00   -0.94952E-02  6651   0.299E-01    0.689E+01
RMM:  42    -0.357165758795E+04   -0.26128E+00   -0.23769E-01  7166   0.565E-01    0.700E+01
RMM:  43    -0.357114068431E+04    0.51690E+00   -0.16970E-01  6899   0.447E-01    0.684E+01
RMM:  44    -0.357098681029E+04    0.15387E+00   -0.46824E-02  6014   0.239E-01    0.678E+01
RMM:  45    -0.357057221130E+04    0.41460E+00   -0.42959E-02  6241   0.192E-01    0.686E+01
RMM:  46    -0.357058997724E+04   -0.17766E-01   -0.35434E-02  6084   0.214E-01    0.682E+01
RMM:  47    -0.357037320851E+04    0.21677E+00   -0.37754E-02  6140   0.216E-01    0.693E+01
RMM:  48    -0.357041282147E+04   -0.39613E-01   -0.43615E-02  6365   0.232E-01    0.688E+01
RMM:  49    -0.357043317461E+04   -0.20353E-01   -0.20894E-02  6036   0.158E-01    0.687E+01
RMM:  50    -0.356988315089E+04    0.55002E+00   -0.57311E-02  6739   0.256E-01    0.681E+01
RMM:  51    -0.356983219949E+04    0.50951E-01   -0.45524E-02  6322   0.207E-01    0.665E+01
RMM:  52    -0.356997734771E+04   -0.14515E+00   -0.66407E-02  6489   0.280E-01    0.661E+01
RMM:  53    -0.356975420973E+04    0.22314E+00   -0.40243E-02  6463   0.231E-01    0.660E+01
RMM:  54    -0.356966137874E+04    0.92831E-01   -0.52995E-02  6723   0.281E-01    0.656E+01
RMM:  55    -0.356964389438E+04    0.17484E-01   -0.34773E-02  6454   0.228E-01    0.656E+01
RMM:  56    -0.356978763073E+04   -0.14374E+00   -0.20609E-02  6242   0.156E-01    0.662E+01
RMM:  57    -0.356975204132E+04    0.35589E-01   -0.24350E-02  6255   0.150E-01    0.657E+01
RMM:  58    -0.359010221732E+04   -0.20350E+02   -0.58010E+00  8744   0.132E+00    0.951E+01
RMM:  59    -0.357348988791E+04    0.16612E+02   -0.64856E+00  8728   0.182E+00    0.732E+01
RMM:  60    -0.358340085749E+04   -0.99110E+01   -0.51318E+00  8732   0.171E+00    0.802E+01
RMM:  61    -0.357800001499E+04    0.54008E+01   -0.68444E+00  8744   0.194E+00    0.770E+01
RMM:  62    -0.357218039613E+04    0.58196E+01   -0.19303E+00  8669   0.106E+00    0.489E+01
RMM:  63    -0.357358617964E+04   -0.14058E+01   -0.20386E+00  8647   0.123E+00    0.594E+01
RMM:  64    -0.357172253309E+04    0.18636E+01   -0.13214E+00  8551   0.962E-01    0.514E+01
RMM:  65    -0.357218912713E+04   -0.46659E+00   -0.11452E+00  8592   0.922E-01    0.473E+01
RMM:  66    -0.357166202104E+04    0.52711E+00   -0.94474E-01  8421   0.861E-01    0.458E+01
RMM:  67    -0.357115538300E+04    0.50664E+00   -0.41081E-01  8199   0.528E-01    0.432E+01
RMM:  68    -0.357533491103E+04   -0.41795E+01   -0.49282E+00  8680   0.159E+00    0.572E+01
RMM:  69    -0.357191819111E+04    0.34167E+01   -0.25033E+00  8601   0.133E+00    0.418E+01
RMM:  70    -0.357292134793E+04   -0.10032E+01   -0.36673E-01  8155   0.587E-01    0.444E+01
RMM:  71    -0.357231581218E+04    0.60554E+00   -0.20015E-01  7765   0.412E-01    0.416E+01
RMM:  72    -0.357233393456E+04   -0.18122E-01   -0.46542E-02  6724   0.203E-01    0.414E+01
RMM:  73    -0.357193356182E+04    0.40037E+00   -0.30935E-01  8143   0.495E-01    0.406E+01
RMM:  74    -0.357207022051E+04   -0.13666E+00   -0.77213E-02  7129   0.266E-01    0.405E+01
RMM:  75    -0.357226122251E+04   -0.19100E+00   -0.67098E-02  7052   0.268E-01    0.412E+01
RMM:  76    -0.357233431354E+04   -0.73091E-01   -0.20701E-02  6326   0.124E-01    0.418E+01
RMM:  77    -0.357233054700E+04    0.37665E-02   -0.14743E-02  6228   0.118E-01    0.415E+01
RMM:  78    -0.357358206574E+04   -0.12515E+01   -0.10025E+00  8320   0.576E-01    0.467E+01
RMM:  79    -0.357429190946E+04   -0.70984E+00   -0.12213E+00  8498   0.801E-01    0.467E+01
RMM:  80    -0.357493963010E+04   -0.64772E+00   -0.43071E-01  8263   0.609E-01    0.466E+01
RMM:  81    -0.357541655655E+04   -0.47693E+00   -0.60471E-02  7272   0.226E-01    0.473E+01
RMM:  82    -0.357542862119E+04   -0.12065E-01   -0.34841E-02  6811   0.159E-01    0.480E+01
RMM:  83    -0.358023435346E+04   -0.48057E+01   -0.18555E+00  8615   0.959E-01    0.627E+01
RMM:  84    -0.357458006946E+04    0.56543E+01   -0.20011E+00  8576   0.104E+00    0.524E+01
RMM:  85    -0.357503390602E+04   -0.45384E+00   -0.31928E-01  8215   0.529E-01    0.488E+01
RMM:  86    -0.357526948345E+04   -0.23558E+00   -0.17858E-01  7958   0.350E-01    0.465E+01
RMM:  87    -0.357468148764E+04    0.58800E+00   -0.21085E-01  8044   0.403E-01    0.437E+01
RMM:  88    -0.357468594731E+04   -0.44597E-02   -0.14527E+00  8568   0.939E-01    0.468E+01
RMM:  89    -0.357475153774E+04   -0.65590E-01   -0.28278E-01  8168   0.504E-01    0.430E+01
RMM:  90    -0.357523832078E+04   -0.48678E+00   -0.42320E-01  8252   0.494E-01    0.430E+01
RMM:  91    -0.357525734239E+04   -0.19022E-01   -0.27928E-01  8288   0.412E-01    0.409E+01
RMM:  92    -0.357519791256E+04    0.59430E-01   -0.39397E-01  8284   0.455E-01    0.409E+01
RMM:  93    -0.357458161241E+04    0.61630E+00   -0.67933E-01  8348   0.672E-01    0.416E+01
RMM:  94    -0.357462354926E+04   -0.41937E-01   -0.31473E-01  8214   0.464E-01    0.412E+01
RMM:  95    -0.357490476669E+04   -0.28122E+00   -0.21668E-01  8037   0.356E-01    0.422E+01
RMM:  96    -0.357492717778E+04   -0.22411E-01   -0.11980E-01  7663   0.325E-01    0.410E+01
RMM:  97    -0.357451801886E+04    0.40916E+00   -0.61783E-02  7351   0.186E-01    0.442E+01
RMM:  98    -0.357801724297E+04   -0.34992E+01   -0.27971E+00  8670   0.116E+00    0.592E+01
RMM:  99    -0.357415898636E+04    0.38583E+01   -0.18418E+00  8596   0.111E+00    0.478E+01
RMM: 100    -0.357515046507E+04   -0.99148E+00   -0.54197E-01  8409   0.644E-01    0.432E+01
RMM: 101    -0.357572778346E+04   -0.57732E+00   -0.28271E-01  8235   0.451E-01    0.417E+01
RMM: 102    -0.357598000761E+04   -0.25222E+00   -0.13424E-01  7879   0.394E-01    0.421E+01
RMM: 103    -0.361465088746E+04   -0.38671E+02   -0.21003E+01  8722   0.285E+00    0.815E+01
RMM: 104    -0.358078753290E+04    0.33863E+02   -0.13440E+01  8712   0.221E+00    0.556E+01
RMM: 105    -0.357730544145E+04    0.34821E+01   -0.12784E+00  8491   0.812E-01    0.437E+01
RMM: 106    -0.357653672500E+04    0.76872E+00   -0.84154E-01  8408   0.720E-01    0.374E+01
RMM: 107    -0.357543940550E+04    0.10973E+01   -0.54686E-01  8211   0.513E-01    0.375E+01
RMM: 108    -0.357982982304E+04   -0.43904E+01   -0.11180E+00  8464   0.705E-01    0.480E+01
RMM: 109    -0.357828652737E+04    0.15433E+01   -0.59436E-01  8365   0.635E-01    0.418E+01
RMM: 110    -0.357782149697E+04    0.46503E+00   -0.18423E-01  7870   0.408E-01    0.405E+01
RMM: 111    -0.357820085483E+04   -0.37936E+00   -0.11489E-01  7626   0.245E-01    0.453E+01
RMM: 112    -0.357737417765E+04    0.82668E+00   -0.24018E-01  7881   0.456E-01    0.391E+01
RMM: 113    -0.357791396301E+04   -0.53979E+00   -0.84014E-01  8497   0.727E-01    0.406E+01
RMM: 114    -0.357905426217E+04   -0.11403E+01   -0.40737E-01  8298   0.603E-01    0.374E+01
RMM: 115    -0.358098442939E+04   -0.19302E+01   -0.35328E-01  8244   0.493E-01    0.406E+01
RMM: 116    -0.358082135898E+04    0.16307E+00   -0.19891E-01  7948   0.376E-01    0.383E+01
RMM: 117    -0.358057439683E+04    0.24696E+00   -0.52562E-02  7123   0.210E-01    0.374E+01
RMM: 118    -0.358221499805E+04   -0.16406E+01   -0.20594E+00  8418   0.784E-01    0.377E+01
RMM: 119    -0.358278315601E+04   -0.56816E+00   -0.13074E-01  7843   0.329E-01    0.381E+01
RMM: 120    -0.358280048535E+04   -0.17329E-01   -0.20931E-01  7835   0.296E-01    0.410E+01
RMM: 121    -0.358281324659E+04   -0.12761E-01   -0.51158E-02  6989   0.255E-01    0.408E+01
RMM: 122    -0.358278577146E+04    0.27475E-01   -0.31966E-02  6798   0.147E-01    0.405E+01
RMM: 123    -0.358302322624E+04   -0.23745E+00   -0.20579E-01  8083   0.330E-01    0.368E+01
RMM: 124    -0.358366527542E+04   -0.64205E+00   -0.25726E-01  8185   0.399E-01    0.367E+01
RMM: 125    -0.358434435181E+04   -0.67908E+00   -0.38664E-01  8417   0.500E-01    0.354E+01
RMM: 126    -0.358435459055E+04   -0.10239E-01   -0.26495E-01  8259   0.413E-01    0.341E+01
RMM: 127    -0.358535395205E+04   -0.99936E+00   -0.52181E-01  8499   0.501E-01    0.331E+01
RMM: 128    -0.359453256086E+04   -0.91786E+01   -0.28319E+00  8684   0.115E+00    0.687E+01
RMM: 129    -0.358635328623E+04    0.81793E+01   -0.30810E+00  8669   0.124E+00    0.424E+01
RMM: 130    -0.358625874255E+04    0.94544E-01   -0.29156E-01  8222   0.528E-01    0.360E+01
RMM: 131    -0.358803540895E+04   -0.17767E+01   -0.28040E-01  8261   0.450E-01    0.374E+01
RMM: 132    -0.358811603172E+04   -0.80623E-01   -0.14670E-01  7749   0.403E-01    0.386E+01
RMM: 133    -0.358755251492E+04    0.56352E+00   -0.25223E-01  8164   0.425E-01    0.420E+01
RMM: 134    -0.358720900288E+04    0.34351E+00   -0.27958E-01  8180   0.421E-01    0.456E+01
RMM: 135    -0.358730627069E+04   -0.97268E-01   -0.11891E-01  7548   0.349E-01    0.470E+01
RMM: 136    -0.358734628673E+04   -0.40016E-01   -0.23343E-02  6562   0.138E-01    0.472E+01
RMM: 137    -0.358777339599E+04   -0.42711E+00   -0.13899E-01  7809   0.249E-01    0.450E+01
RMM: 138    -0.359152529131E+04   -0.37519E+01   -0.65813E+00  8676   0.136E+00    0.456E+01
RMM: 139    -0.359027662274E+04    0.12487E+01   -0.27195E+00  8619   0.986E-01    0.305E+01
RMM: 140    -0.359139372812E+04   -0.11171E+01   -0.96713E-01  8548   0.799E-01    0.297E+01
RMM: 141    -0.359029887462E+04    0.10949E+01   -0.61201E-01  8417   0.550E-01    0.279E+01
RMM: 142    -0.359064392878E+04   -0.34505E+00   -0.43088E-01  8289   0.472E-01    0.291E+01
RMM: 143    -0.359090369705E+04   -0.25977E+00   -0.12898E+00  8515   0.763E-01    0.330E+01
RMM: 144    -0.359069421657E+04    0.20948E+00   -0.27347E-01  8238   0.430E-01    0.353E+01
RMM: 145    -0.359124694111E+04   -0.55272E+00   -0.22202E-01  8065   0.415E-01    0.369E+01
RMM: 146    -0.359127548193E+04   -0.28541E-01   -0.35884E-02  7166   0.182E-01    0.377E+01
RMM: 147    -0.359131175604E+04   -0.36274E-01   -0.12497E-02  6504   0.878E-02    0.381E+01
RMM: 148    -0.359211957234E+04   -0.80782E+00   -0.42138E+00  8703   0.126E+00    0.288E+01
RMM: 149    -0.359230061093E+04   -0.18104E+00   -0.12499E+00  8597   0.798E-01    0.282E+01
RMM: 150    -0.359166990540E+04    0.63071E+00   -0.53523E-01  8421   0.579E-01    0.252E+01
RMM: 151    -0.359127772678E+04    0.39218E+00   -0.85961E-01  8526   0.612E-01    0.256E+01
RMM: 152    -0.359143635172E+04   -0.15862E+00   -0.25021E-01  8335   0.402E-01    0.254E+01
RMM: 153    -0.359344325414E+04   -0.20069E+01   -0.39575E+00  8671   0.124E+00    0.237E+01
RMM: 154    -0.359332696483E+04    0.11629E+00   -0.67645E-01  8521   0.664E-01    0.231E+01
RMM: 155    -0.359346520797E+04   -0.13824E+00   -0.13588E-01  8111   0.273E-01    0.241E+01
RMM: 156    -0.359345428551E+04    0.10922E-01   -0.69664E-02  7522   0.187E-01    0.235E+01
RMM: 157    -0.359365994429E+04   -0.20566E+00   -0.44245E-01  8458   0.480E-01    0.235E+01
RMM: 158    -0.359741208178E+04   -0.37521E+01   -0.12416E+00  8580   0.720E-01    0.522E+01
RMM: 159    -0.359370656032E+04    0.37055E+01   -0.82991E-01  8419   0.605E-01    0.251E+01
RMM: 160    -0.359465488027E+04   -0.94832E+00   -0.38292E-01  8470   0.557E-01    0.334E+01
RMM: 161    -0.359407321565E+04    0.58166E+00   -0.34123E-01  8185   0.428E-01    0.240E+01
RMM: 162    -0.359421037803E+04   -0.13716E+00   -0.59380E-01  8557   0.593E-01    0.295E+01
RMM: 163    -0.359359172010E+04    0.61866E+00   -0.83251E-01  8478   0.704E-01    0.240E+01
RMM: 164    -0.359397411636E+04   -0.38240E+00   -0.42053E-01  8401   0.531E-01    0.233E+01
RMM: 165    -0.359385604829E+04    0.11807E+00   -0.68739E-02  7641   0.203E-01    0.228E+01
RMM: 166    -0.359391464976E+04   -0.58601E-01   -0.21727E-02  6609   0.143E-01    0.232E+01
RMM: 167    -0.359372067180E+04    0.19398E+00   -0.87595E-02  7829   0.219E-01    0.244E+01
RMM: 168    -0.359662004355E+04   -0.28994E+01   -0.38718E+00  8701   0.111E+00    0.493E+01
RMM: 169    -0.359351603093E+04    0.31040E+01   -0.69808E-01  8454   0.512E-01    0.255E+01
RMM: 170    -0.359408235994E+04   -0.56633E+00   -0.52706E-01  8359   0.444E-01    0.268E+01
RMM: 171    -0.359407415264E+04    0.82073E-02   -0.16831E-01  7723   0.234E-01    0.279E+01
RMM: 172    -0.359376055895E+04    0.31359E+00   -0.91787E-02  7560   0.188E-01    0.274E+01
RMM: 173    -0.359311471420E+04    0.64584E+00   -0.17952E+00  8630   0.808E-01    0.270E+01
RMM: 174    -0.359339153510E+04   -0.27682E+00   -0.61470E-01  8470   0.503E-01    0.238E+01
RMM: 175    -0.359430551018E+04   -0.91398E+00   -0.45292E-01  8292   0.419E-01    0.252E+01
RMM: 176    -0.359547516195E+04   -0.11697E+01   -0.69575E-01  8529   0.509E-01    0.279E+01
RMM: 177    -0.359542537939E+04    0.49783E-01   -0.14183E-01  8067   0.386E-01    0.266E+01
RMM: 178    -0.359757825803E+04   -0.21529E+01   -0.67141E+00  8685   0.124E+00    0.383E+01
RMM: 179    -0.359635111952E+04    0.12271E+01   -0.29632E+00  8642   0.842E-01    0.219E+01
RMM: 180    -0.359610453731E+04    0.24658E+00   -0.94198E-01  8554   0.589E-01    0.202E+01
RMM: 181    -0.359595896739E+04    0.14557E+00   -0.15273E+00  8653   0.449E-01    0.226E+01
RMM: 182    -0.359577161656E+04    0.18735E+00   -0.25467E-01  8024   0.323E-01    0.232E+01
RMM: 183    -0.359681062400E+04   -0.10390E+01   -0.22229E+00  8621   0.589E-01    0.420E+01
RMM: 184    -0.359303240259E+04    0.37782E+01   -0.86345E-01  8599   0.646E-01    0.269E+01
RMM: 185    -0.359309801384E+04   -0.65611E-01   -0.20662E-01  8046   0.348E-01    0.218E+01
RMM: 186    -0.359373223789E+04   -0.63422E+00   -0.18550E-01  8276   0.359E-01    0.232E+01
RMM: 187    -0.359460782160E+04   -0.87558E+00   -0.25678E-01  8166   0.374E-01    0.231E+01
RMM: 188    -0.359458378590E+04    0.24036E-01   -0.50674E-01  8464   0.553E-01    0.207E+01
RMM: 189    -0.359435006054E+04    0.23373E+00   -0.24644E-01  8163   0.403E-01    0.193E+01
RMM: 190    -0.359422281767E+04    0.12724E+00   -0.19669E-01  8038   0.282E-01    0.210E+01
RMM: 191    -0.359423927314E+04   -0.16455E-01   -0.35013E-01  8261   0.350E-01    0.214E+01
RMM: 192    -0.359389081268E+04    0.34846E+00   -0.19825E-01  8213   0.355E-01    0.215E+01
RMM: 193    -0.359282966463E+04    0.10611E+01   -0.28107E-01  8291   0.399E-01    0.222E+01
RMM: 194    -0.359279317208E+04    0.36493E-01   -0.27644E-02  7156   0.156E-01    0.216E+01
RMM: 195    -0.359279600701E+04   -0.28349E-02   -0.25382E-03  5866   0.485E-02    0.216E+01
RMM: 196    -0.359285159291E+04   -0.55586E-01   -0.17545E-03  5753   0.325E-02    0.220E+01
RMM: 197    -0.359285991308E+04   -0.83202E-02   -0.21939E-03  5759   0.452E-02    0.220E+01
RMM: 198    -0.359326007571E+04   -0.40016E+00   -0.13701E+00  8694   0.721E-01    0.238E+01
RMM: 199    -0.359318267988E+04    0.77396E-01   -0.15610E-01  8405   0.344E-01    0.229E+01
RMM: 200    -0.359346422218E+04   -0.28154E+00   -0.83761E-02  8352   0.220E-01    0.242E+01
RMM: 201    -0.359395520085E+04   -0.49098E+00   -0.98925E-02  8248   0.221E-01    0.243E+01
RMM: 202    -0.359410016789E+04   -0.14497E+00   -0.56867E-02  8167   0.180E-01    0.230E+01
RMM: 203    -0.359663119085E+04   -0.25310E+01   -0.24114E+00  8714   0.820E-01    0.253E+01
RMM: 204    -0.359700703533E+04   -0.37584E+00   -0.17387E+00  8673   0.723E-01    0.230E+01
RMM: 205    -0.359681173250E+04    0.19530E+00   -0.73180E-01  8573   0.506E-01    0.228E+01
RMM: 206    -0.359630021184E+04    0.51152E+00   -0.73902E-01  8556   0.364E-01    0.219E+01
RMM: 207    -0.359640561828E+04   -0.10541E+00   -0.12144E-01  8315   0.284E-01    0.207E+01
RMM: 208    -0.359769015166E+04   -0.12845E+01   -0.16321E+00  8574   0.623E-01    0.212E+01
RMM: 209    -0.359723820746E+04    0.45194E+00   -0.39843E-01  8335   0.344E-01    0.215E+01
RMM: 210    -0.359708747225E+04    0.15074E+00   -0.40647E-01  8138   0.251E-01    0.209E+01
RMM: 211    -0.359711237847E+04   -0.24906E-01   -0.20806E-01  7996   0.276E-01    0.200E+01
RMM: 212    -0.359712629134E+04   -0.13913E-01   -0.50985E-02  6988   0.143E-01    0.199E+01
RMM: 213    -0.359702050493E+04    0.10579E+00   -0.18365E+00  8703   0.678E-01    0.191E+01
RMM: 214    -0.359749174086E+04   -0.47124E+00   -0.28215E-01  8634   0.380E-01    0.199E+01
RMM: 215    -0.359738512539E+04    0.10662E+00   -0.35341E-01  8586   0.413E-01    0.141E+01
RMM: 216    -0.359763523437E+04   -0.25011E+00   -0.21038E-01  8498   0.363E-01    0.160E+01
RMM: 217    -0.359762314645E+04    0.12088E-01   -0.97059E-02  8278   0.231E-01    0.157E+01
RMM: 218    -0.359803064699E+04   -0.40750E+00   -0.63319E-01  8569   0.473E-01    0.217E+01
RMM: 219    -0.359782547274E+04    0.20517E+00   -0.24575E-01  8520   0.424E-01    0.164E+01
RMM: 220    -0.359785530573E+04   -0.29833E-01   -0.15898E-01  8517   0.282E-01    0.172E+01
RMM: 221    -0.359770223226E+04    0.15307E+00   -0.49133E-02  8040   0.174E-01    0.150E+01
RMM: 222    -0.359769222931E+04    0.10003E-01   -0.40480E-02  7596   0.184E-01    0.152E+01
RMM: 223    -0.359758403227E+04    0.10820E+00   -0.57228E-01  8583   0.416E-01    0.170E+01
RMM: 224    -0.359773461763E+04   -0.15059E+00   -0.89629E-02  8358   0.223E-01    0.160E+01
RMM: 225    -0.359767671258E+04    0.57905E-01   -0.33258E-02  7875   0.151E-01    0.166E+01
RMM: 226    -0.359778473233E+04   -0.10802E+00   -0.46283E-02  8019   0.196E-01    0.171E+01
RMM: 227    -0.359776732422E+04    0.17408E-01   -0.12114E-02  7008   0.941E-02    0.169E+01
RMM: 228    -0.359784691828E+04   -0.79594E-01   -0.45985E-01  8424   0.328E-01    0.142E+01
RMM: 229    -0.359789452601E+04   -0.47608E-01   -0.20577E-01  8437   0.399E-01    0.161E+01
RMM: 230    -0.359774127668E+04    0.15325E+00   -0.23101E-01  8551   0.354E-01    0.138E+01
RMM: 231    -0.359782010312E+04   -0.78826E-01   -0.51536E-02  8095   0.197E-01    0.152E+01
RMM: 232    -0.359785969992E+04   -0.39597E-01   -0.31549E-02  7836   0.174E-01    0.160E+01
RMM: 233    -0.359774502309E+04    0.11468E+00   -0.61909E-01  8669   0.500E-01    0.163E+01
RMM: 234    -0.359741992095E+04    0.32510E+00   -0.20186E-01  8498   0.299E-01    0.141E+01
RMM: 235    -0.359724668327E+04    0.17324E+00   -0.12629E-01  8344   0.198E-01    0.139E+01
RMM: 236    -0.359734343922E+04   -0.96756E-01   -0.22582E-01  8569   0.289E-01    0.170E+01
RMM: 237    -0.359731760621E+04    0.25833E-01   -0.10992E-01  8003   0.244E-01    0.172E+01
RMM: 238    -0.359722816099E+04    0.89445E-01   -0.21494E-01  8442   0.327E-01    0.180E+01
RMM: 239    -0.359685938811E+04    0.36877E+00   -0.24985E-01  8208   0.248E-01    0.197E+01
RMM: 240    -0.359688020599E+04   -0.20818E-01   -0.25062E-02  7317   0.144E-01    0.202E+01
RMM: 241    -0.359673917087E+04    0.14104E+00   -0.39753E-02  7426   0.125E-01    0.231E+01
RMM: 242    -0.359658001750E+04    0.15915E+00   -0.53117E-02  7676   0.192E-01    0.241E+01
RMM: 243    -0.359681484279E+04   -0.23483E+00   -0.78314E-01  8592   0.382E-01    0.198E+01
RMM: 244    -0.359672538896E+04    0.89454E-01   -0.51065E-01  8457   0.468E-01    0.161E+01
RMM: 245    -0.359666079733E+04    0.64592E-01   -0.17779E-01  8237   0.225E-01    0.141E+01
RMM: 246    -0.359671297244E+04   -0.52175E-01   -0.65374E-02  7792   0.165E-01    0.143E+01
RMM: 247    -0.359663853918E+04    0.74433E-01   -0.35248E-02  7482   0.896E-02    0.135E+01
RMM: 248    -0.359827269862E+04   -0.16342E+01   -0.77174E-01  8645   0.552E-01    0.193E+01
RMM: 249    -0.359759275450E+04    0.67994E+00   -0.42554E-01  8615   0.430E-01    0.221E+01
RMM: 250    -0.359736629871E+04    0.22646E+00   -0.74898E-02  8206   0.255E-01    0.230E+01
RMM: 251    -0.359728184022E+04    0.84458E-01   -0.16468E-02  7436   0.125E-01    0.229E+01
RMM: 252    -0.359723550482E+04    0.46335E-01   -0.31590E-03  6258   0.549E-02    0.230E+01
RMM: 253    -0.359753404192E+04   -0.29854E+00   -0.27105E-01  8404   0.299E-01    0.220E+01
RMM: 254    -0.359747429997E+04    0.59742E-01   -0.58525E-02  8001   0.180E-01    0.220E+01
RMM: 255    -0.359750074606E+04   -0.26446E-01   -0.70884E-03  6664   0.728E-02    0.219E+01
RMM: 256    -0.359708042979E+04    0.42032E+00   -0.59890E-02  7933   0.159E-01    0.198E+01
RMM: 257    -0.359683268319E+04    0.24775E+00   -0.22212E-01  8430   0.255E-01    0.258E+01
RMM: 258    -0.359690084357E+04   -0.68160E-01   -0.16708E-01  8459   0.290E-01    0.296E+01
RMM: 259    -0.359696653638E+04   -0.65693E-01   -0.62855E-02  7788   0.225E-01    0.304E+01
RMM: 260    -0.359660106008E+04    0.36548E+00   -0.51381E-02  7738   0.135E-01    0.282E+01
RMM: 261    -0.359677915906E+04   -0.17810E+00   -0.19234E-02  7090   0.804E-02    0.303E+01
RMM: 262    -0.359666500138E+04    0.11416E+00   -0.17620E-02  6674   0.788E-02    0.303E+01
RMM: 263    -0.359597339957E+04    0.69160E+00   -0.23096E-01  8413   0.251E-01    0.140E+01
RMM: 264    -0.359630728394E+04   -0.33388E+00   -0.24038E-01  8495   0.348E-01    0.171E+01
RMM: 265    -0.359617378291E+04    0.13350E+00   -0.69842E-02  7881   0.187E-01    0.160E+01
RMM: 266    -0.359611641893E+04    0.57364E-01   -0.40160E-02  7296   0.796E-02    0.160E+01
RMM: 267    -0.359610689375E+04    0.95252E-02   -0.68843E-03  6299   0.628E-02    0.160E+01
RMM: 268    -0.359563811198E+04    0.46878E+00   -0.29197E-01  8536   0.284E-01    0.121E+01
RMM: 269    -0.359530536505E+04    0.33275E+00   -0.18342E-01  8454   0.303E-01    0.119E+01
RMM: 270    -0.359464386415E+04    0.66150E+00   -0.18568E-01  8257   0.211E-01    0.117E+01
RMM: 271    -0.359372518736E+04    0.91868E+00   -0.21782E-01  8393   0.259E-01    0.128E+01
RMM: 272    -0.359446474998E+04   -0.73956E+00   -0.12431E-01  8149   0.225E-01    0.136E+01
RMM: 273    -0.359343078807E+04    0.10340E+01   -0.16984E+00  8710   0.686E-01    0.193E+01
RMM: 274    -0.359431010884E+04   -0.87932E+00   -0.41122E-01  8655   0.434E-01    0.206E+01
RMM: 275    -0.359407679544E+04    0.23331E+00   -0.12591E-01  8403   0.272E-01    0.181E+01
RMM: 276    -0.359452303906E+04   -0.44624E+00   -0.11067E-01  8425   0.202E-01    0.174E+01
RMM: 277    -0.359447348811E+04    0.49551E-01   -0.41940E-02  7807   0.196E-01    0.176E+01
RMM: 278    -0.359472180884E+04   -0.24832E+00   -0.10094E-01  8502   0.210E-01    0.182E+01
RMM: 279    -0.359471157368E+04    0.10235E-01   -0.64366E-03  7222   0.586E-02    0.182E+01
RMM: 280    -0.359471425393E+04   -0.26802E-02   -0.73648E-04  5946   0.174E-02    0.183E+01
RMM: 281    -0.359474460812E+04   -0.30354E-01   -0.81164E-04  5813   0.163E-02    0.183E+01
RMM: 282    -0.359468081389E+04    0.63794E-01   -0.56832E-03  7189   0.554E-02    0.182E+01
RMM: 283    -0.359696266496E+04   -0.22819E+01   -0.99723E-01  8720   0.529E-01    0.168E+01
RMM: 284    -0.359681288037E+04    0.14978E+00   -0.18163E-01  8638   0.362E-01    0.152E+01
RMM: 285    -0.359663915755E+04    0.17372E+00   -0.11527E-01  8645   0.236E-01    0.145E+01
RMM: 286    -0.359685532912E+04   -0.21617E+00   -0.72304E-02  8476   0.245E-01    0.158E+01
RMM: 287    -0.359685557382E+04   -0.24469E-03   -0.11426E-02  7730   0.102E-01    0.158E+01
RMM: 288    -0.359786046189E+04   -0.10049E+01   -0.46251E-01  8657   0.388E-01    0.160E+01
RMM: 289    -0.359800958948E+04   -0.14913E+00   -0.19229E-01  8675   0.359E-01    0.156E+01
RMM: 290    -0.359809311604E+04   -0.83527E-01   -0.10415E-01  8507   0.271E-01    0.147E+01
RMM: 291    -0.359792717419E+04    0.16594E+00   -0.98485E-02  8456   0.216E-01    0.176E+01
RMM: 292    -0.359799540451E+04   -0.68230E-01   -0.63874E-02  8436   0.225E-01    0.165E+01
RMM: 293    -0.359784736729E+04    0.14804E+00   -0.38438E-01  8707   0.420E-01    0.162E+01
RMM: 294    -0.359817070530E+04   -0.32334E+00   -0.18239E-01  8619   0.323E-01    0.163E+01
RMM: 295    -0.359814648222E+04    0.24223E-01   -0.34079E-02  8332   0.118E-01    0.145E+01
RMM: 296    -0.359822301711E+04   -0.76535E-01   -0.24016E-02  8253   0.139E-01    0.143E+01
RMM: 297    -0.359826702126E+04   -0.44004E-01   -0.87134E-03  7736   0.899E-02    0.144E+01
RMM: 298    -0.359871948796E+04   -0.45247E+00   -0.42258E-01  8687   0.429E-01    0.135E+01
RMM: 299    -0.359877901269E+04   -0.59525E-01   -0.58021E-02  8542   0.178E-01    0.139E+01
RMM: 300    -0.359845185266E+04    0.32716E+00   -0.19803E-01  8695   0.265E-01    0.150E+01
RMM: 301    -0.359840970029E+04    0.42152E-01   -0.21402E-02  8215   0.108E-01    0.151E+01
RMM: 302    -0.359840802175E+04    0.16785E-02   -0.24894E-03  6955   0.457E-02    0.151E+01
RMM: 303    -0.359876619798E+04   -0.35818E+00   -0.37311E-01  8699   0.409E-01    0.172E+01
RMM: 304    -0.359866301326E+04    0.10318E+00   -0.54030E-02  8412   0.220E-01    0.153E+01
RMM: 305    -0.359865024256E+04    0.12771E-01   -0.57712E-02  8271   0.164E-01    0.150E+01
RMM: 306    -0.359857513064E+04    0.75112E-01   -0.60526E-02  8495   0.166E-01    0.145E+01
RMM: 307    -0.359861108697E+04   -0.35956E-01   -0.53213E-02  8545   0.155E-01    0.144E+01
RMM: 308    -0.359915985083E+04   -0.54876E+00   -0.34628E-01  8697   0.435E-01    0.155E+01
RMM: 309    -0.359903902341E+04    0.12083E+00   -0.74359E-02  8464   0.209E-01    0.141E+01
RMM: 310    -0.359907623463E+04   -0.37211E-01   -0.50250E-02  8597   0.171E-01    0.134E+01
RMM: 311    -0.359922947167E+04   -0.15324E+00   -0.66550E-02  8670   0.163E-01    0.148E+01
RMM: 312    -0.359935441817E+04   -0.12495E+00   -0.10027E-01  8592   0.294E-01    0.137E+01
RMM: 313    -0.359922070054E+04    0.13372E+00   -0.80983E-01  8716   0.519E-01    0.149E+01
RMM: 314    -0.359928826901E+04   -0.67568E-01   -0.23740E-01  8675   0.423E-01    0.131E+01
RMM: 315    -0.359926136946E+04    0.26900E-01   -0.63253E-02  8541   0.166E-01    0.129E+01
RMM: 316    -0.359929103439E+04   -0.29665E-01   -0.21652E-02  8235   0.940E-02    0.126E+01
RMM: 317    -0.359931295438E+04   -0.21920E-01   -0.52283E-02  8515   0.143E-01    0.122E+01
RMM: 318    -0.360124194417E+04   -0.19290E+01   -0.13792E+00  8718   0.659E-01    0.373E+01
RMM: 319    -0.360020262846E+04    0.10393E+01   -0.66469E-01  8693   0.559E-01    0.214E+01
RMM: 320    -0.359969372807E+04    0.50890E+00   -0.20233E-01  8671   0.353E-01    0.217E+01
RMM: 321    -0.359962973339E+04    0.63995E-01   -0.55155E-02  8254   0.212E-01    0.217E+01
RMM: 322    -0.359955201820E+04    0.77715E-01   -0.20915E-02  8023   0.979E-02    0.216E+01
RMM: 323    -0.359933507103E+04    0.21695E+00   -0.10199E-01  8571   0.217E-01    0.208E+01
RMM: 324    -0.359937141894E+04   -0.36348E-01   -0.14304E-01  8493   0.194E-01    0.197E+01
RMM: 325    -0.359917176658E+04    0.19965E+00   -0.28855E-01  8204   0.153E-01    0.202E+01
RMM: 326    -0.359925395973E+04   -0.82193E-01   -0.15159E-01  8103   0.110E-01    0.196E+01
RMM: 327    -0.359943703671E+04   -0.18308E+00   -0.81945E-02  8526   0.147E-01    0.242E+01
RMM: 328    -0.359927140406E+04    0.16563E+00   -0.16686E-01  8586   0.308E-01    0.229E+01
RMM: 329    -0.359938735943E+04   -0.11596E+00   -0.27633E-02  8240   0.104E-01    0.195E+01
RMM: 330    -0.359945627787E+04   -0.68918E-01   -0.53707E-02  8412   0.204E-01    0.200E+01
RMM: 331    -0.359956611239E+04   -0.10983E+00   -0.45203E-02  8293   0.161E-01    0.199E+01
RMM: 332    -0.359963353704E+04   -0.67425E-01   -0.11027E-02  7524   0.528E-02    0.203E+01
RMM: 333    -0.359944062847E+04    0.19291E+00   -0.40486E-01  8648   0.374E-01    0.203E+01
RMM: 334    -0.359952234958E+04   -0.81721E-01   -0.90100E-02  8506   0.232E-01    0.222E+01
RMM: 335    -0.359914861693E+04    0.37373E+00   -0.86733E-02  8358   0.190E-01    0.213E+01
RMM: 336    -0.359914026838E+04    0.83485E-02   -0.20185E-02  7812   0.112E-01    0.214E+01
RMM: 337    -0.359895394819E+04    0.18632E+00   -0.19095E-02  8026   0.952E-02    0.214E+01
RMM: 338    -0.359909730691E+04   -0.14336E+00   -0.59686E-02  8558   0.139E-01    0.213E+01
RMM: 339    -0.359890044557E+04    0.19686E+00   -0.12838E-01  8463   0.145E-01    0.215E+01
RMM: 340    -0.359861231864E+04    0.28813E+00   -0.46784E-01  8558   0.235E-01    0.259E+01
RMM: 341    -0.359885870144E+04   -0.24638E+00   -0.15019E-01  8430   0.230E-01    0.234E+01
RMM: 342    -0.359885791647E+04    0.78498E-03   -0.33471E-02  8099   0.777E-02    0.215E+01
RMM: 343    -0.359836217921E+04    0.49574E+00   -0.91832E-01  8654   0.395E-01    0.229E+01
RMM: 344    -0.359754649823E+04    0.81568E+00   -0.25534E-01  8582   0.343E-01    0.227E+01
RMM: 345    -0.359667177235E+04    0.87473E+00   -0.21333E-01  8588   0.221E-01    0.222E+01
RMM: 346    -0.359676727730E+04   -0.95505E-01   -0.10612E-01  8195   0.227E-01    0.222E+01
RMM: 347    -0.359720372576E+04   -0.43645E+00   -0.12599E-01  8342   0.188E-01    0.223E+01
RMM: 348    -0.359842784410E+04   -0.12241E+01   -0.80478E-01  8680   0.441E-01    0.233E+01
RMM: 349    -0.359834174007E+04    0.86104E-01   -0.22816E-01  8667   0.313E-01    0.235E+01
RMM: 350    -0.359817606448E+04    0.16568E+00   -0.10016E-01  8538   0.147E-01    0.217E+01
RMM: 351    -0.359862771621E+04   -0.45165E+00   -0.10980E-01  8322   0.242E-01    0.217E+01
RMM: 352    -0.359872927794E+04   -0.10156E+00   -0.56177E-02  8177   0.123E-01    0.212E+01
RMM: 353    -0.359860659071E+04    0.12269E+00   -0.40261E-02  8353   0.129E-01    0.219E+01
RMM: 354    -0.359844161547E+04    0.16498E+00   -0.11528E-01  8529   0.216E-01    0.220E+01
RMM: 355    -0.359842118837E+04    0.20427E-01   -0.14814E-02  7953   0.694E-02    0.217E+01
RMM: 356    -0.359847056246E+04   -0.49374E-01   -0.29430E-03  6903   0.392E-02    0.216E+01
RMM: 357    -0.359855556996E+04   -0.85008E-01   -0.26887E-01  8588   0.230E-01    0.224E+01
RMM: 358    -0.359726551819E+04    0.12901E+01   -0.43018E-01  8695   0.308E-01    0.230E+01
RMM: 359    -0.359702727772E+04    0.23824E+00   -0.71691E-02  8304   0.154E-01    0.238E+01
RMM: 360    -0.359697550538E+04    0.51772E-01   -0.11992E-02  7829   0.912E-02    0.249E+01
RMM: 361    -0.359686740659E+04    0.10810E+00   -0.59448E-02  8236   0.127E-01    0.262E+01
RMM: 362    -0.359638336569E+04    0.48404E+00   -0.23067E-01  8538   0.223E-01    0.264E+01
RMM: 363    -0.359541371841E+04    0.96965E+00   -0.21440E+00  8694   0.679E-01    0.225E+01
RMM: 364    -0.359675963979E+04   -0.13459E+01   -0.46097E-01  8597   0.315E-01    0.221E+01
RMM: 365    -0.359693110077E+04   -0.17146E+00   -0.38883E-02  8268   0.992E-02    0.214E+01
RMM: 366    -0.359672059400E+04    0.21051E+00   -0.14173E-01  8646   0.169E-01    0.211E+01
RMM: 367    -0.359554457284E+04    0.11760E+01   -0.38539E-01  8548   0.309E-01    0.208E+01
RMM: 368    -0.357572537578E+04    0.19819E+02   -0.10914E+01  8718   0.139E+00    0.319E+01
RMM: 369    -0.359410225775E+04   -0.18377E+02   -0.43823E+00  8691   0.101E+00    0.199E+01
RMM: 370    -0.359995835852E+04   -0.58561E+01   -0.21249E+00  8655   0.586E-01    0.186E+01
RMM: 371    -0.360137641951E+04   -0.14181E+01   -0.19317E+00  8688   0.535E-01    0.192E+01
RMM: 372    -0.360109577151E+04    0.28065E+00   -0.44113E-01  8672   0.330E-01    0.225E+01
RMM: 373    -0.360124742269E+04   -0.15165E+00   -0.28646E-01  8631   0.321E-01    0.239E+01
RMM: 374    -0.360098635939E+04    0.26106E+00   -0.44508E-02  8378   0.153E-01    0.234E+01
RMM: 375    -0.360048467311E+04    0.50169E+00   -0.47577E-02  8201   0.101E-01    0.214E+01
RMM: 376    -0.359963845401E+04    0.84622E+00   -0.16555E-01  8512   0.180E-01    0.187E+01
RMM: 377    -0.359967114274E+04   -0.32689E-01   -0.11506E-01  8515   0.255E-01    0.186E+01
RMM: 378    -0.360138507215E+04   -0.17139E+01   -0.95173E-01  8702   0.464E-01    0.216E+01
RMM: 379    -0.360123458646E+04    0.15049E+00   -0.29763E-01  8592   0.338E-01    0.200E+01
RMM: 380    -0.360105978393E+04    0.17480E+00   -0.10777E-01  8621   0.229E-01    0.176E+01
RMM: 381    -0.360087647190E+04    0.18331E+00   -0.19364E-01  8654   0.253E-01    0.173E+01
RMM: 382    -0.360067253306E+04    0.20394E+00   -0.48713E-02  8635   0.122E-01    0.173E+01
RMM: 383    -0.360066817657E+04    0.43565E-02   -0.28433E-01  8655   0.202E-01    0.173E+01
RMM: 384    -0.360031442387E+04    0.35375E+00   -0.40272E-02  8675   0.107E-01    0.187E+01
RMM: 385    -0.360028609422E+04    0.28330E-01   -0.69111E-02  8168   0.190E-01    0.196E+01
RMM: 386    -0.360007435145E+04    0.21174E+00   -0.76193E-02  8663   0.137E-01    0.193E+01
RMM: 387    -0.360012586178E+04   -0.51510E-01   -0.17135E-02  7937   0.956E-02    0.193E+01
RMM: 388    -0.360022836859E+04   -0.10251E+00   -0.37924E-02  8046   0.774E-02    0.191E+01
RMM: 389    -0.360026665577E+04   -0.38287E-01   -0.27184E-02  7722   0.721E-02    0.188E+01
RMM: 390    -0.360033026132E+04   -0.63606E-01   -0.30586E-02  7758   0.621E-02    0.187E+01
RMM: 391    -0.360035033858E+04   -0.20077E-01   -0.39930E-03  6851   0.432E-02    0.187E+01
RMM: 392    -0.360035167783E+04   -0.13392E-02   -0.59739E-04  5665   0.128E-02    0.187E+01
RMM: 393    -0.360044667234E+04   -0.94995E-01   -0.10269E-01  8661   0.175E-01    0.235E+01
RMM: 394    -0.360025243626E+04    0.19424E+00   -0.11044E-01  8520   0.316E-01    0.239E+01
RMM: 395    -0.360016892025E+04    0.83516E-01   -0.16208E-02  8071   0.968E-02    0.242E+01
RMM: 396    -0.359988409061E+04    0.28483E+00   -0.58274E-02  8657   0.128E-01    0.241E+01
RMM: 397    -0.359994617072E+04   -0.62080E-01   -0.11022E-02  7921   0.649E-02    0.242E+01
RMM: 398    -0.360027932393E+04   -0.33315E+00   -0.28599E-01  8699   0.279E-01    0.232E+01
RMM: 399    -0.360031923776E+04   -0.39914E-01   -0.24611E-02  8423   0.981E-02    0.230E+01
RMM: 400    -0.360030842368E+04    0.10814E-01   -0.62387E-03  8053   0.407E-02    0.229E+01
RMM: 401    -0.360020609424E+04    0.10233E+00   -0.25266E-02  8583   0.793E-02    0.220E+01
RMM: 402    -0.360020879882E+04   -0.27046E-02   -0.33299E-03  7538   0.432E-02    0.223E+01
RMM: 403    -0.360336513200E+04   -0.31563E+01   -0.19710E+00  8726   0.718E-01    0.233E+01
RMM: 404    -0.360177289834E+04    0.15922E+01   -0.83454E-01  8715   0.529E-01    0.172E+01
RMM: 405    -0.360180770178E+04   -0.34803E-01   -0.14510E-01  8663   0.270E-01    0.170E+01
RMM: 406    -0.360181525066E+04   -0.75489E-02   -0.46836E-02  8603   0.120E-01    0.170E+01
RMM: 407    -0.360200538382E+04   -0.19013E+00   -0.12303E-01  8703   0.188E-01    0.162E+01
RMM: 408    -0.360134191362E+04    0.66347E+00   -0.28552E+00  8716   0.732E-01    0.258E+01
RMM: 409    -0.360124641360E+04    0.95500E-01   -0.86906E-01  8710   0.556E-01    0.185E+01
RMM: 410    -0.360183528451E+04   -0.58887E+00   -0.26042E-01  8711   0.349E-01    0.215E+01
RMM: 411    -0.360175129423E+04    0.83990E-01   -0.74052E-02  8582   0.185E-01    0.197E+01
RMM: 412    -0.360171962034E+04    0.31674E-01   -0.26840E-02  8540   0.136E-01    0.186E+01
RMM: 413    -0.360130718778E+04    0.41243E+00   -0.16781E-01  8584   0.237E-01    0.221E+01
RMM: 414    -0.360131577084E+04   -0.85831E-02   -0.18803E-02  8163   0.127E-01    0.242E+01
RMM: 415    -0.360148283595E+04   -0.16707E+00   -0.63378E-02  8501   0.192E-01    0.269E+01
RMM: 416    -0.360160673394E+04   -0.12390E+00   -0.66991E-02  8406   0.240E-01    0.271E+01
RMM: 417    -0.360160585634E+04    0.87760E-03   -0.80555E-03  7764   0.785E-02    0.268E+01
RMM: 418    -0.360229761544E+04   -0.69176E+00   -0.94664E-01  8721   0.519E-01    0.319E+01
RMM: 419    -0.360201622466E+04    0.28139E+00   -0.97936E-02  8609   0.319E-01    0.311E+01
RMM: 420    -0.360200293886E+04    0.13286E-01   -0.11340E-02  8136   0.830E-02    0.312E+01
RMM: 421    -0.360224247540E+04   -0.23954E+00   -0.18530E-02  8468   0.891E-02    0.321E+01
RMM: 422    -0.360188430388E+04    0.35817E+00   -0.24065E-02  8458   0.107E-01    0.298E+01
RMM: 423    -0.360222532333E+04   -0.34102E+00   -0.48754E-02  8379   0.148E-01    0.305E+01
RMM: 424    -0.360229046228E+04   -0.65139E-01   -0.57542E-02  8258   0.124E-01    0.321E+01
RMM: 425    -0.360227299900E+04    0.17463E-01   -0.62254E-03  7678   0.625E-02    0.326E+01
RMM: 426    -0.360232633071E+04   -0.53332E-01   -0.42255E-03  7337   0.436E-02    0.339E+01
RMM: 427    -0.360233931016E+04   -0.12979E-01   -0.23659E-03  6852   0.415E-02    0.344E+01
RMM: 428    -0.360106461165E+04    0.12747E+01   -0.45731E+00  8724   0.984E-01    0.296E+01
RMM: 429    -0.360101059288E+04    0.54019E-01   -0.53311E-01  8710   0.557E-01    0.268E+01
RMM: 430    -0.360136763289E+04   -0.35704E+00   -0.58859E-01  8713   0.373E-01    0.389E+01
RMM: 431    -0.360105162299E+04    0.31601E+00   -0.10990E-01  8682   0.239E-01    0.410E+01
RMM: 432    -0.360110627870E+04   -0.54656E-01   -0.30897E-02  8307   0.125E-01    0.420E+01
RMM: 433    -0.360033759229E+04    0.76869E+00   -0.18088E+00  8718   0.679E-01    0.191E+01
RMM: 434    -0.359975692995E+04    0.58066E+00   -0.41369E-01  8708   0.457E-01    0.162E+01
RMM: 435    -0.359960885718E+04    0.14807E+00   -0.29722E-01  8713   0.320E-01    0.128E+01
RMM: 436    -0.360005730972E+04   -0.44845E+00   -0.17996E-01  8696   0.291E-01    0.142E+01
RMM: 437    -0.360020706401E+04   -0.14975E+00   -0.39814E-02  8590   0.170E-01    0.142E+01
RMM: 438    -0.361328536990E+04   -0.13078E+02   -0.79081E+00  8718   0.129E+00    0.588E+01
RMM: 439    -0.360122708009E+04    0.12058E+02   -0.38234E+00  8720   0.104E+00    0.159E+01
RMM: 440    -0.360120238052E+04    0.24700E-01   -0.34070E-01  8701   0.425E-01    0.156E+01
RMM: 441    -0.360092821847E+04    0.27416E+00   -0.16961E-01  8694   0.238E-01    0.143E+01
RMM: 442    -0.360076360026E+04    0.16462E+00   -0.55250E-02  8528   0.204E-01    0.144E+01
RMM: 443    -0.360215938862E+04   -0.13958E+01   -0.60376E-01  8710   0.477E-01    0.125E+01
RMM: 444    -0.360217359358E+04   -0.14205E-01   -0.16843E-01  8694   0.307E-01    0.129E+01
RMM: 445    -0.360216618887E+04    0.74047E-02   -0.28847E-01  8673   0.297E-01    0.115E+01
RMM: 446    -0.360202018488E+04    0.14600E+00   -0.85880E-02  8555   0.137E-01    0.105E+01
RMM: 447    -0.360199429834E+04    0.25887E-01   -0.10728E-02  8203   0.820E-02    0.104E+01
RMM: 448    -0.360334286905E+04   -0.13486E+01   -0.20051E+00  8711   0.706E-01    0.164E+01
RMM: 449    -0.360347417293E+04   -0.13130E+00   -0.20044E-01  8661   0.315E-01    0.162E+01
RMM: 450    -0.360325926944E+04    0.21490E+00   -0.18882E-01  8557   0.177E-01    0.186E+01
RMM: 451    -0.360296261019E+04    0.29666E+00   -0.13691E-01  8647   0.301E-01    0.197E+01
RMM: 452    -0.360320431038E+04   -0.24170E+00   -0.44162E-01  8674   0.313E-01    0.159E+01
RMM: 453    -0.360367158852E+04   -0.46728E+00   -0.59802E-01  8686   0.395E-01    0.187E+01
RMM: 454    -0.360380890294E+04   -0.13731E+00   -0.22210E-01  8652   0.236E-01    0.164E+01
RMM: 455    -0.360380254930E+04    0.63536E-02   -0.40880E-02  8330   0.170E-01    0.164E+01
RMM: 456    -0.360359753808E+04    0.20501E+00   -0.81746E-02  8577   0.113E-01    0.166E+01
RMM: 457    -0.360285042390E+04    0.74711E+00   -0.59581E-01  8682   0.282E-01    0.197E+01
RMM: 458    -0.360283942890E+04    0.10995E-01   -0.87358E-01  8691   0.434E-01    0.162E+01
RMM: 459    -0.360319239898E+04   -0.35297E+00   -0.23211E-01  8660   0.326E-01    0.110E+01
RMM: 460    -0.360332757371E+04   -0.13517E+00   -0.19286E-01  8690   0.309E-01    0.112E+01
RMM: 461    -0.360331569737E+04    0.11876E-01   -0.15989E-01  8698   0.219E-01    0.117E+01
RMM: 462    -0.360324337383E+04    0.72324E-01   -0.82245E-02  8646   0.126E-01    0.120E+01
RMM: 463    -0.360333517245E+04   -0.91799E-01   -0.51788E-02  8287   0.119E-01    0.120E+01
RMM: 464    -0.360343546530E+04   -0.10029E+00   -0.44345E-02  8339   0.789E-02    0.120E+01
RMM: 465    -0.360347241267E+04   -0.36947E-01   -0.15054E-02  8467   0.582E-02    0.121E+01
RMM: 466    -0.360335900821E+04    0.11340E+00   -0.13964E-01  8698   0.156E-01    0.127E+01
RMM: 467    -0.360313210250E+04    0.22691E+00   -0.21162E-01  8654   0.125E-01    0.132E+01
RMM: 468    -0.360282944976E+04    0.30265E+00   -0.23068E+00  8716   0.591E-01    0.124E+01
RMM: 469    -0.360319843088E+04   -0.36898E+00   -0.69617E-01  8672   0.306E-01    0.116E+01
RMM: 470    -0.360320026142E+04   -0.18305E-02   -0.16529E-01  8659   0.171E-01    0.110E+01
RMM: 471    -0.360319235114E+04    0.79103E-02   -0.59311E-02  8502   0.118E-01    0.108E+01
RMM: 472    -0.360318411822E+04    0.82329E-02   -0.40606E-02  8560   0.921E-02    0.105E+01
RMM: 473    -0.360358879299E+04   -0.40467E+00   -0.55724E-01  8672   0.339E-01    0.104E+01
RMM: 474    -0.360345678185E+04    0.13201E+00   -0.20065E-01  8695   0.235E-01    0.115E+01
RMM: 475    -0.360319264637E+04    0.26414E+00   -0.12937E-01  8639   0.143E-01    0.103E+01
RMM: 476    -0.360320117346E+04   -0.85271E-02   -0.15143E-02  8285   0.829E-02    0.103E+01
RMM: 477    -0.360317922511E+04    0.21948E-01   -0.26187E-02  8487   0.803E-02    0.815E+00
RMM: 478    -0.360278600054E+04    0.39322E+00   -0.39501E-01  8700   0.351E-01    0.109E+01
RMM: 479    -0.360332614937E+04   -0.54015E+00   -0.23421E-01  8676   0.218E-01    0.983E+00
RMM: 480    -0.360303883115E+04    0.28732E+00   -0.12799E-01  8461   0.224E-01    0.101E+01
RMM: 481    -0.360304175943E+04   -0.29283E-02   -0.63110E-02  8458   0.127E-01    0.990E+00
RMM: 482    -0.360289971230E+04    0.14205E+00   -0.62042E-02  8509   0.127E-01    0.957E+00
RMM: 483    -0.360209855740E+04    0.80115E+00   -0.16051E-01  8473   0.171E-01    0.982E+00
RMM: 484    -0.360186928897E+04    0.22927E+00   -0.15774E-02  7763   0.680E-02    0.997E+00
RMM: 485    -0.360245593792E+04   -0.58665E+00   -0.79108E-02  8335   0.111E-01    0.952E+00
RMM: 486    -0.360326726112E+04   -0.81132E+00   -0.37774E-01  8563   0.220E-01    0.864E+00
RMM: 487    -0.360355878515E+04   -0.29152E+00   -0.16218E-01  8660   0.176E-01    0.809E+00
RMM: 488    -0.360351448407E+04    0.44301E-01   -0.10689E-01  8693   0.203E-01    0.803E+00
RMM: 489    -0.360375355145E+04   -0.23907E+00   -0.14162E-01  8716   0.182E-01    0.126E+01
RMM: 490    -0.360372639847E+04    0.27153E-01   -0.65743E-02  8488   0.222E-01    0.126E+01
RMM: 491    -0.360374682482E+04   -0.20426E-01   -0.18348E-02  8084   0.794E-02    0.127E+01
RMM: 492    -0.360376287448E+04   -0.16050E-01   -0.31471E-03  7026   0.219E-02    0.128E+01
RMM: 493    -0.360373186439E+04    0.31010E-01   -0.36002E-02  8455   0.106E-01    0.123E+01
RMM: 494    -0.360371370395E+04    0.18160E-01   -0.28456E-03  7702   0.382E-02    0.117E+01
RMM: 495    -0.360378068922E+04   -0.66985E-01   -0.15903E-02  8353   0.719E-02    0.123E+01
RMM: 496    -0.360381840887E+04   -0.37720E-01   -0.32348E-03  7873   0.323E-02    0.125E+01
RMM: 497    -0.360376761163E+04    0.50797E-01   -0.12264E-02  8239   0.699E-02    0.128E+01
RMM: 498    -0.360330528585E+04    0.46233E+00   -0.70003E-01  8718   0.449E-01    0.112E+01
RMM: 499    -0.360347118334E+04   -0.16590E+00   -0.99316E-02  8675   0.248E-01    0.108E+01
RMM: 500    -0.360362525816E+04   -0.15407E+00   -0.28976E-02  8595   0.930E-02    0.109E+01
RMM: 501    -0.360353683503E+04    0.88423E-01   -0.20211E-02  8434   0.805E-02    0.107E+01
RMM: 502    -0.360323982082E+04    0.29701E+00   -0.13475E-01  8689   0.177E-01    0.999E+00
RMM: 503    -0.360322992911E+04    0.98917E-02   -0.75371E-02  8574   0.165E-01    0.688E+00
RMM: 504    -0.360335371279E+04   -0.12378E+00   -0.33992E-02  8454   0.149E-01    0.707E+00
RMM: 505    -0.360337408262E+04   -0.20370E-01   -0.22221E-02  8401   0.964E-02    0.710E+00
RMM: 506    -0.360331351319E+04    0.60569E-01   -0.45033E-02  8626   0.907E-02    0.699E+00
RMM: 507    -0.360319210856E+04    0.12140E+00   -0.15449E-01  8708   0.188E-01    0.713E+00
RMM: 508    -0.360307872764E+04    0.11338E+00   -0.55585E-02  8604   0.105E-01    0.858E+00
RMM: 509    -0.360303199343E+04    0.46734E-01   -0.88129E-02  8475   0.169E-01    0.100E+01
RMM: 510    -0.360303507388E+04   -0.30804E-02   -0.10073E-02  7824   0.730E-02    0.105E+01
RMM: 511    -0.360291931316E+04    0.11576E+00   -0.36436E-02  8328   0.821E-02    0.738E+00
RMM: 512    -0.360284249530E+04    0.76818E-01   -0.40056E-02  8221   0.109E-01    0.703E+00
RMM: 513    -0.360238450037E+04    0.45799E+00   -0.16471E-01  8539   0.181E-01    0.781E+00
RMM: 514    -0.360266661687E+04   -0.28212E+00   -0.92531E-02  8649   0.157E-01    0.761E+00
RMM: 515    -0.360317150914E+04   -0.50489E+00   -0.24338E-01  8677   0.215E-01    0.711E+00
RMM: 516    -0.360317851483E+04   -0.70057E-02   -0.24178E-02  8468   0.902E-02    0.990E+00
RMM: 517    -0.360325428524E+04   -0.75770E-01   -0.34794E-02  8586   0.160E-01    0.137E+01
RMM: 518    -0.360425821432E+04   -0.10039E+01   -0.15571E+00  8725   0.447E-01    0.219E+01
RMM: 519    -0.360382919559E+04    0.42902E+00   -0.21730E-01  8645   0.434E-01    0.204E+01
RMM: 520    -0.360378909272E+04    0.40103E-01   -0.26620E-02  8268   0.114E-01    0.194E+01
RMM: 521    -0.360376029973E+04    0.28793E-01   -0.58747E-03  7886   0.583E-02    0.190E+01
RMM: 522    -0.360384713915E+04   -0.86839E-01   -0.22818E-02  8029   0.123E-01    0.213E+01
RMM: 523    -0.360526755874E+04   -0.14204E+01   -0.68871E-01  8722   0.410E-01    0.387E+01
RMM: 524    -0.360445482719E+04    0.81273E+00   -0.22206E-01  8668   0.415E-01    0.338E+01
RMM: 525    -0.360461572366E+04   -0.16090E+00   -0.42197E-02  8381   0.173E-01    0.333E+01
RMM: 526    -0.360499036455E+04   -0.37464E+00   -0.14812E-02  8380   0.774E-02    0.363E+01
RMM: 527    -0.360499120068E+04   -0.83613E-03   -0.23440E-02  8124   0.148E-01    0.376E+01
RMM: 528    -0.360661134308E+04   -0.16201E+01   -0.18112E-01  8690   0.232E-01    0.463E+01
RMM: 529    -0.360612823467E+04    0.48311E+00   -0.12461E-01  8523   0.228E-01    0.457E+01
RMM: 530    -0.360526605587E+04    0.86218E+00   -0.31376E-02  8602   0.104E-01    0.375E+01
RMM: 531    -0.360549617213E+04   -0.23012E+00   -0.85557E-02  8505   0.240E-01    0.375E+01
RMM: 532    -0.360562602487E+04   -0.12985E+00   -0.20014E-02  8214   0.125E-01    0.377E+01
RMM: 533    -0.360482828049E+04    0.79774E+00   -0.50368E-01  8699   0.226E-01    0.300E+01
RMM: 534    -0.360481238440E+04    0.15896E-01   -0.10301E-01  8572   0.254E-01    0.288E+01
RMM: 535    -0.360496353736E+04   -0.15115E+00   -0.28157E-02  8353   0.115E-01    0.291E+01
RMM: 536    -0.360506064979E+04   -0.97112E-01   -0.71799E-03  7906   0.440E-02    0.292E+01
RMM: 537    -0.360503747148E+04    0.23178E-01   -0.16479E-03  6759   0.208E-02    0.292E+01
RMM: 538    -0.360622233576E+04   -0.11849E+01   -0.16579E-01  8705   0.184E-01    0.383E+01
RMM: 539    -0.360577954613E+04    0.44279E+00   -0.17156E-01  8609   0.341E-01    0.373E+01
RMM: 540    -0.360575069532E+04    0.28851E-01   -0.25453E-02  8227   0.114E-01    0.373E+01
RMM: 541    -0.360582937973E+04   -0.78684E-01   -0.91373E-03  7874   0.768E-02    0.375E+01
RMM: 542    -0.360586001870E+04   -0.30639E-01   -0.47614E-03  7863   0.500E-02    0.378E+01
RMM: 543    -0.360376904488E+04    0.20910E+01   -0.36818E-01  8713   0.289E-01    0.250E+01
RMM: 544    -0.360317625137E+04    0.59279E+00   -0.27181E-01  8718   0.394E-01    0.227E+01
RMM: 545    -0.360322513330E+04   -0.48882E-01   -0.29010E-01  8722   0.317E-01    0.157E+01
RMM: 546    -0.360352430495E+04   -0.29917E+00   -0.15329E-01  8675   0.341E-01    0.173E+01
RMM: 547    -0.360339241852E+04    0.13189E+00   -0.61401E-02  8676   0.210E-01    0.165E+01
RMM: 548    -0.360333257769E+04    0.59841E-01   -0.58015E-02  8682   0.133E-01    0.101E+01
RMM: 549    -0.360343854413E+04   -0.10597E+00   -0.20810E-01  8708   0.318E-01    0.142E+01
RMM: 550    -0.360328113932E+04    0.15740E+00   -0.10999E-01  8543   0.195E-01    0.148E+01
RMM: 551    -0.360319628213E+04    0.84857E-01   -0.19106E-02  8077   0.807E-02    0.153E+01
RMM: 552    -0.360319895862E+04   -0.26765E-02   -0.20649E-03  7225   0.352E-02    0.155E+01
RMM: 553    -0.360313082692E+04    0.68132E-01   -0.21384E-02  8612   0.916E-02    0.135E+01
RMM: 554    -0.360312055547E+04    0.10271E-01   -0.85967E-03  8401   0.584E-02    0.143E+01
RMM: 555    -0.360310430656E+04    0.16249E-01   -0.47897E-02  8696   0.107E-01    0.122E+01
RMM: 556    -0.360316145678E+04   -0.57150E-01   -0.16864E-02  8612   0.950E-02    0.115E+01
RMM: 557    -0.360317871854E+04   -0.17262E-01   -0.35818E-03  7766   0.432E-02    0.117E+01
RMM: 558    -0.360040268524E+04    0.27760E+01   -0.28354E+00  8711   0.836E-01    0.128E+01
RMM: 559    -0.360240717202E+04   -0.20045E+01   -0.88552E-01  8710   0.491E-01    0.114E+01
RMM: 560    -0.360471306770E+04   -0.23059E+01   -0.35833E-01  8720   0.272E-01    0.357E+01
RMM: 561    -0.360451492839E+04    0.19814E+00   -0.16895E-01  8595   0.406E-01    0.357E+01
RMM: 562    -0.360428249557E+04    0.23243E+00   -0.22278E-02  8357   0.120E-01    0.354E+01
RMM: 563    -0.360314996360E+04    0.11325E+01   -0.29274E-01  8712   0.340E-01    0.248E+01
RMM: 564    -0.360319686659E+04   -0.46903E-01   -0.13453E-01  8685   0.308E-01    0.234E+01
RMM: 565    -0.360286641275E+04    0.33045E+00   -0.13170E-01  8710   0.196E-01    0.158E+01
RMM: 566    -0.360318229285E+04   -0.31588E+00   -0.96277E-02  8633   0.235E-01    0.185E+01
RMM: 567    -0.360310013661E+04    0.82156E-01   -0.21400E-02  8085   0.137E-01    0.190E+01
RMM: 568    -0.360250666068E+04    0.59348E+00   -0.30839E-01  8721   0.353E-01    0.910E+00
RMM: 569    -0.360251720798E+04   -0.10547E-01   -0.28037E-01  8708   0.410E-01    0.135E+01
RMM: 570    -0.360252957947E+04   -0.12371E-01   -0.50506E-02  8454   0.202E-01    0.140E+01
RMM: 571    -0.360255161579E+04   -0.22036E-01   -0.77551E-02  8686   0.174E-01    0.218E+01
RMM: 572    -0.360246393834E+04    0.87677E-01   -0.43356E-02  8456   0.193E-01    0.225E+01
RMM: 573    -0.360211183312E+04    0.35211E+00   -0.25247E-01  8703   0.265E-01    0.101E+01
RMM: 574    -0.360178859717E+04    0.32324E+00   -0.20666E-01  8610   0.336E-01    0.140E+01
RMM: 575    -0.360185642819E+04   -0.67831E-01   -0.30767E-02  8361   0.142E-01    0.141E+01
RMM: 576    -0.360173623651E+04    0.12019E+00   -0.97301E-03  7982   0.612E-02    0.143E+01
RMM: 577    -0.360226686276E+04   -0.53063E+00   -0.97214E-02  8663   0.172E-01    0.136E+01
RMM: 578    -0.360298680245E+04   -0.71994E+00   -0.28591E-01  8567   0.269E-01    0.128E+01
RMM: 579    -0.360304048282E+04   -0.53680E-01   -0.11615E-01  8678   0.206E-01    0.131E+01
RMM: 580    -0.360322762601E+04   -0.18714E+00   -0.17222E-01  8696   0.208E-01    0.141E+01
RMM: 581    -0.360329223435E+04   -0.64608E-01   -0.31625E-02  8297   0.123E-01    0.142E+01
RMM: 582    -0.360309010241E+04    0.20213E+00   -0.84352E-02  8420   0.145E-01    0.147E+01
RMM: 583    -0.360310034811E+04   -0.10246E-01   -0.41454E-01  8658   0.343E-01    0.114E+01
RMM: 584    -0.360319011494E+04   -0.89767E-01   -0.42666E-02  8665   0.123E-01    0.101E+01
RMM: 585    -0.360322731814E+04   -0.37203E-01   -0.73692E-02  8609   0.162E-01    0.854E+00
RMM: 586    -0.360294890662E+04    0.27841E+00   -0.12668E-01  8688   0.221E-01    0.891E+00
RMM: 587    -0.360267965693E+04    0.26925E+00   -0.68218E-02  8602   0.157E-01    0.893E+00
RMM: 588    -0.360304359792E+04   -0.36394E+00   -0.43216E-01  8699   0.365E-01    0.841E+00
RMM: 589    -0.360300334575E+04    0.40252E-01   -0.62561E-02  8646   0.171E-01    0.121E+01
RMM: 590    -0.360300786052E+04   -0.45148E-02   -0.48835E-02  8334   0.168E-01    0.122E+01
RMM: 591    -0.360301775515E+04   -0.98946E-02   -0.75542E-02  8326   0.122E-01    0.980E+00
RMM: 592    -0.360301255522E+04    0.51999E-02   -0.48626E-02  8025   0.103E-01    0.909E+00
RMM: 593    -0.360254323521E+04    0.46932E+00   -0.66377E-01  8710   0.374E-01    0.956E+00
RMM: 594    -0.360291307500E+04   -0.36984E+00   -0.18871E-01  8704   0.225E-01    0.889E+00
RMM: 595    -0.360306893986E+04   -0.15586E+00   -0.47025E-02  8680   0.997E-02    0.901E+00
RMM: 596    -0.360333337918E+04   -0.26444E+00   -0.56016E-02  8695   0.114E-01    0.126E+01
RMM: 597    -0.360337217264E+04   -0.38793E-01   -0.23344E-02  8490   0.137E-01    0.141E+01
RMM: 598    -0.360301518432E+04    0.35699E+00   -0.11411E-01  8690   0.212E-01    0.935E+00
RMM: 599    -0.360315133200E+04   -0.13615E+00   -0.84512E-02  8646   0.162E-01    0.107E+01
RMM: 600    -0.360313812911E+04    0.13203E-01   -0.13128E-02  7698   0.496E-02    0.103E+01
RMM: 601    -0.360312827810E+04    0.98510E-02   -0.13444E-02  7407   0.297E-02    0.102E+01
RMM: 602    -0.360311595048E+04    0.12328E-01   -0.53346E-02  8435   0.811E-02    0.119E+01
RMM: 603    -0.360299318583E+04    0.12276E+00   -0.15881E-01  8703   0.207E-01    0.891E+00
RMM: 604    -0.360312305180E+04   -0.12987E+00   -0.96103E-02  8537   0.165E-01    0.891E+00
RMM: 605    -0.360316818903E+04   -0.45137E-01   -0.31419E-02  8618   0.904E-02    0.864E+00
RMM: 606    -0.360301501129E+04    0.15318E+00   -0.11156E-01  8698   0.150E-01    0.916E+00
RMM: 607    -0.360295791735E+04    0.57094E-01   -0.87018E-03  8253   0.540E-02    0.931E+00
RMM: 608    -0.360326006582E+04   -0.30215E+00   -0.96567E-02  8696   0.194E-01    0.130E+01
RMM: 609    -0.360361682933E+04   -0.35676E+00   -0.19499E-01  8651   0.258E-01    0.139E+01
RMM: 610    -0.360367623075E+04   -0.59401E-01   -0.48171E-02  8481   0.129E-01    0.135E+01
RMM: 611    -0.360308591309E+04    0.59032E+00   -0.39099E-01  8549   0.233E-01    0.125E+01
RMM: 612    -0.360197976514E+04    0.11061E+01   -0.51079E-01  8471   0.237E-01    0.102E+01
RMM: 613    -0.360299231087E+04   -0.10125E+01   -0.17101E+00  8714   0.493E-01    0.699E+00
RMM: 614    -0.360322263733E+04   -0.23033E+00   -0.17905E-01  8681   0.224E-01    0.684E+00
RMM: 615    -0.360268111081E+04    0.54153E+00   -0.18678E-01  8639   0.194E-01    0.114E+01
RMM: 616    -0.360262445815E+04    0.56653E-01   -0.73453E-02  8542   0.223E-01    0.850E+00
RMM: 617    -0.360265635898E+04   -0.31901E-01   -0.65386E-03  7699   0.511E-02    0.791E+00
RMM: 618    -0.360182247799E+04    0.83388E+00   -0.39410E-01  8681   0.263E-01    0.615E+00
RMM: 619    -0.360197236783E+04   -0.14989E+00   -0.20146E-01  8516   0.197E-01    0.593E+00
RMM: 620    -0.360194692983E+04    0.25438E-01   -0.95177E-03  7855   0.593E-02    0.603E+00
RMM: 621    -0.360185510333E+04    0.91827E-01   -0.19091E-01  8323   0.115E-01    0.671E+00
RMM: 622    -0.360174157016E+04    0.11353E+00   -0.29487E-02  8507   0.149E-01    0.111E+01
RMM: 623    -0.360167841768E+04    0.63152E-01   -0.11612E+00  8606   0.339E-01    0.595E+00
RMM: 624    -0.360177920535E+04   -0.10079E+00   -0.20224E-01  8609   0.264E-01    0.117E+01
RMM: 625    -0.360161389333E+04    0.16531E+00   -0.68758E-02  8622   0.211E-01    0.111E+01
RMM: 626    -0.360156071419E+04    0.53179E-01   -0.24145E-02  8323   0.129E-01    0.117E+01
RMM: 627    -0.360158220642E+04   -0.21492E-01   -0.94391E-03  8278   0.839E-02    0.125E+01
RMM: 628    -0.360160919750E+04   -0.26991E-01   -0.67935E-02  8586   0.156E-01    0.117E+01
RMM: 629    -0.360154143729E+04    0.67760E-01   -0.27091E-02  8406   0.128E-01    0.117E+01
RMM: 630    -0.360161590189E+04   -0.74465E-01   -0.97371E-03  8131   0.949E-02    0.118E+01
RMM: 631    -0.360163978515E+04   -0.23883E-01   -0.23608E-03  7510   0.436E-02    0.120E+01
RMM: 632    -0.360165816792E+04   -0.18383E-01   -0.15582E-03  7576   0.334E-02    0.118E+01
RMM: 633    -0.360166404360E+04   -0.58757E-02   -0.19250E-02  8589   0.819E-02    0.118E+01
RMM: 634    -0.360159872253E+04    0.65321E-01   -0.13946E-02  8303   0.109E-01    0.123E+01
RMM: 635    -0.360154251887E+04    0.56204E-01   -0.68683E-03  8143   0.752E-02    0.120E+01
RMM: 636    -0.360151356385E+04    0.28955E-01   -0.29238E-03  7971   0.369E-02    0.116E+01
RMM: 637    -0.360156219060E+04   -0.48627E-01   -0.49639E-03  8287   0.648E-02    0.122E+01
RMM: 638    -0.360132920686E+04    0.23298E+00   -0.21626E-01  8619   0.258E-01    0.127E+01
RMM: 639    -0.360142598529E+04   -0.96778E-01   -0.43492E-02  8521   0.157E-01    0.125E+01
RMM: 640    -0.360139542268E+04    0.30563E-01   -0.30219E-02  8413   0.967E-02    0.124E+01
RMM: 641    -0.360150161247E+04   -0.10619E+00   -0.53078E-03  8302   0.441E-02    0.127E+01
RMM: 642    -0.360119863159E+04    0.30298E+00   -0.42147E-02  8653   0.119E-01    0.121E+01
RMM: 643    -0.360176352787E+04   -0.56490E+00   -0.21812E-01  8696   0.214E-01    0.132E+01
RMM: 644    -0.360202215308E+04   -0.25863E+00   -0.24164E-02  8604   0.852E-02    0.132E+01
RMM: 645    -0.360190867335E+04    0.11348E+00   -0.14866E-02  8340   0.837E-02    0.133E+01
RMM: 646    -0.360190359798E+04    0.50754E-02   -0.16063E-02  8491   0.685E-02    0.136E+01
RMM: 647    -0.360193357383E+04   -0.29976E-01   -0.39342E-02  8662   0.104E-01    0.139E+01
RMM: 648    -0.360184297786E+04    0.90596E-01   -0.11353E-01  8658   0.138E-01    0.154E+01
RMM: 649    -0.360184113361E+04    0.18443E-02   -0.93375E-03  8172   0.642E-02    0.151E+01
RMM: 650    -0.360182797552E+04    0.13158E-01   -0.22785E-03  7712   0.334E-02    0.155E+01
RMM: 651    -0.360180453566E+04    0.23440E-01   -0.51192E-03  7983   0.433E-02    0.163E+01
RMM: 652    -0.360175950300E+04    0.45033E-01   -0.17689E-02  8597   0.794E-02    0.141E+01
RMM: 653    -0.360323964341E+04   -0.14801E+01   -0.88356E-01  8718   0.494E-01    0.144E+01
RMM: 654    -0.360331203295E+04   -0.72390E-01   -0.29571E-01  8711   0.347E-01    0.151E+01
RMM: 655    -0.360329196363E+04    0.20069E-01   -0.11738E-02  8541   0.651E-02    0.151E+01
RMM: 656    -0.360332940022E+04   -0.37437E-01   -0.24879E-03  8384   0.291E-02    0.151E+01
RMM: 657    -0.360337353967E+04   -0.44139E-01   -0.37738E-03  8518   0.354E-02    0.152E+01
RMM: 658    -0.360466805213E+04   -0.12945E+01   -0.52819E-01  8716   0.399E-01    0.141E+01
RMM: 659    -0.360466647670E+04    0.15754E-02   -0.17900E-01  8714   0.274E-01    0.138E+01
RMM: 660    -0.360465557448E+04    0.10902E-01   -0.96761E-02  8658   0.180E-01    0.122E+01
RMM: 661    -0.360475575513E+04   -0.10018E+00   -0.12025E-01  8718   0.221E-01    0.115E+01
RMM: 662    -0.360485047626E+04   -0.94721E-01   -0.89592E-02  8652   0.161E-01    0.109E+01
RMM: 663    -0.360464040621E+04    0.21007E+00   -0.14568E-01  8622   0.188E-01    0.994E+00
RMM: 664    -0.360450583486E+04    0.13457E+00   -0.74986E-02  8694   0.153E-01    0.992E+00
RMM: 665    -0.360435690852E+04    0.14893E+00   -0.32000E-02  8647   0.830E-02    0.973E+00
RMM: 666    -0.360443257088E+04   -0.75662E-01   -0.58072E-03  8242   0.427E-02    0.985E+00
RMM: 667    -0.360443740842E+04   -0.48375E-02   -0.13933E-04  6232   0.569E-03    0.986E+00
RMM: 668    -0.361992789675E+04   -0.15490E+02   -0.92800E+00  8716   0.109E+00    0.626E+01
RMM: 669    -0.361064805614E+04    0.92798E+01   -0.78439E-01  8714   0.534E-01    0.496E+01
RMM: 670    -0.360574158052E+04    0.49065E+01   -0.53119E-01  8716   0.362E-01    0.153E+01
RMM: 671    -0.360495266838E+04    0.78891E+00   -0.94785E-01  8703   0.444E-01    0.961E+00
RMM: 672    -0.360517818307E+04   -0.22551E+00   -0.36521E-01  8680   0.271E-01    0.121E+01
RMM: 673    -0.360566992896E+04   -0.49175E+00   -0.27546E-01  8720   0.331E-01    0.114E+01
RMM: 674    -0.360561345924E+04    0.56470E-01   -0.59774E-02  8694   0.182E-01    0.975E+00
RMM: 675    -0.360558826961E+04    0.25190E-01   -0.32688E-02  8554   0.142E-01    0.123E+01
RMM: 676    -0.360535977237E+04    0.22850E+00   -0.52610E-02  8660   0.153E-01    0.124E+01
RMM: 677    -0.360534231761E+04    0.17455E-01   -0.84004E-03  8352   0.643E-02    0.125E+01
RMM: 678    -0.360526716180E+04    0.75156E-01   -0.10604E-02  8440   0.506E-02    0.123E+01
RMM: 679    -0.360504979578E+04    0.21737E+00   -0.12739E-01  8711   0.159E-01    0.942E+00
RMM: 680    -0.360515745597E+04   -0.10766E+00   -0.78110E-02  8704   0.179E-01    0.765E+00
RMM: 681    -0.360518065853E+04   -0.23203E-01   -0.56274E-02  8635   0.204E-01    0.741E+00
RMM: 682    -0.360518488889E+04   -0.42304E-02   -0.46901E-02  8710   0.137E-01    0.873E+00
RMM: 683    -0.360533595247E+04   -0.15106E+00   -0.14457E-01  8718   0.201E-01    0.918E+00
RMM: 684    -0.360534108325E+04   -0.51308E-02   -0.20905E-02  8655   0.771E-02    0.908E+00
RMM: 685    -0.360533549562E+04    0.55876E-02   -0.15933E-02  8624   0.565E-02    0.917E+00
RMM: 686    -0.360536052851E+04   -0.25033E-01   -0.61833E-03  8211   0.424E-02    0.903E+00
RMM: 687    -0.360543991693E+04   -0.79388E-01   -0.40833E-02  8420   0.104E-01    0.842E+00
RMM: 688    -0.360559184319E+04   -0.15193E+00   -0.93008E-02  8714   0.160E-01    0.783E+00
RMM: 689    -0.360556566534E+04    0.26178E-01   -0.25374E-02  8634   0.805E-02    0.742E+00
RMM: 690    -0.360557300921E+04   -0.73439E-02   -0.23432E-02  8625   0.812E-02    0.659E+00
RMM: 691    -0.360559682531E+04   -0.23816E-01   -0.63942E-03  8380   0.561E-02    0.659E+00
RMM: 692    -0.360559675473E+04    0.70583E-04   -0.20429E-03  7777   0.334E-02    0.666E+00
RMM: 693    -0.360529990674E+04    0.29685E+00   -0.48523E-01  8718   0.324E-01    0.647E+00
RMM: 694    -0.360543237563E+04   -0.13247E+00   -0.46442E-02  8701   0.143E-01    0.832E+00
RMM: 695    -0.360524578920E+04    0.18659E+00   -0.46804E-02  8652   0.144E-01    0.628E+00
RMM: 696    -0.360526002785E+04   -0.14239E-01   -0.22397E-02  8697   0.115E-01    0.616E+00
RMM: 697    -0.360530485385E+04   -0.44826E-01   -0.10595E-02  8675   0.563E-02    0.723E+00
RMM: 698    -0.360545437477E+04   -0.14952E+00   -0.51876E-02  8604   0.159E-01    0.802E+00
RMM: 699    -0.360538503715E+04    0.69338E-01   -0.53274E-03  8323   0.575E-02    0.711E+00
RMM: 700    -0.360538453631E+04    0.50084E-03   -0.17672E-03  7768   0.384E-02    0.650E+00
RMM: 701    -0.360532972250E+04    0.54814E-01   -0.76889E-03  8395   0.651E-02    0.664E+00
RMM: 702    -0.360533761978E+04   -0.78973E-02   -0.15818E-02  8316   0.122E-01    0.648E+00
RMM: 703    -0.360530932708E+04    0.28293E-01   -0.44860E-03  8203   0.429E-02    0.584E+00
RMM: 704    -0.360529289858E+04    0.16428E-01   -0.44017E-03  8316   0.540E-02    0.578E+00
RMM: 705    -0.360530215685E+04   -0.92583E-02   -0.82773E-03  8233   0.879E-02    0.652E+00
RMM: 706    -0.360529948646E+04    0.26704E-02   -0.67530E-03  8200   0.692E-02    0.639E+00
RMM: 707    -0.360528350830E+04    0.15978E-01   -0.63677E-03  8326   0.467E-02    0.616E+00
RMM: 708    -0.360528421762E+04   -0.70932E-03   -0.87733E-03  8517   0.735E-02    0.589E+00
RMM: 709    -0.360529539613E+04   -0.11179E-01   -0.27108E-03  7815   0.451E-02    0.577E+00
RMM: 710    -0.360532098759E+04   -0.25591E-01   -0.39381E-03  8233   0.331E-02    0.535E+00
RMM: 711    -0.360533609300E+04   -0.15105E-01   -0.52225E-03  8165   0.519E-02    0.512E+00
RMM: 712    -0.360536227874E+04   -0.26186E-01   -0.53590E-03  8277   0.451E-02    0.484E+00
RMM: 713    -0.360579345551E+04   -0.43118E+00   -0.62217E-01  8721   0.408E-01    0.104E+01
RMM: 714    -0.360559477870E+04    0.19868E+00   -0.78845E-02  8629   0.197E-01    0.104E+01
RMM: 715    -0.360558542263E+04    0.93561E-02   -0.50700E-03  8009   0.468E-02    0.104E+01
RMM: 716    -0.360558237245E+04    0.30502E-02   -0.11037E-02  8406   0.655E-02    0.103E+01
RMM: 717    -0.360556634059E+04    0.16032E-01   -0.35458E-03  8183   0.293E-02    0.100E+01
RMM: 718    -0.360547970801E+04    0.86633E-01   -0.40486E-02  8613   0.117E-01    0.854E+00
RMM: 719    -0.360545069792E+04    0.29010E-01   -0.19897E-02  8366   0.804E-02    0.382E+00
RMM: 720    -0.360555704995E+04   -0.10635E+00   -0.81195E-02  8702   0.192E-01    0.326E+00
RMM: 721    -0.360556493365E+04   -0.78837E-02   -0.26586E-02  8701   0.122E-01    0.311E+00
RMM: 722    -0.360556831856E+04   -0.33849E-02   -0.15912E-02  8665   0.664E-02    0.338E+00
RMM: 723    -0.360555949867E+04    0.88199E-02   -0.21965E-02  8306   0.811E-02    0.290E+00
RMM: 724    -0.360555747260E+04    0.20261E-02   -0.39967E-03  8138   0.334E-02    0.296E+00
RMM: 725    -0.360555194943E+04    0.55232E-02   -0.16840E-03  7786   0.179E-02    0.294E+00
RMM: 726    -0.360554726100E+04    0.46884E-02   -0.25106E-03  8002   0.247E-02    0.282E+00
RMM: 727    -0.360554650013E+04    0.76087E-03   -0.32855E-03  8305   0.334E-02    0.267E+00
RMM: 728    -0.360553791022E+04    0.85899E-02   -0.71191E-03  8519   0.443E-02    0.244E+00
RMM: 729    -0.360557028376E+04   -0.32374E-01   -0.14420E-02  8563   0.559E-02    0.716E+00
RMM: 730    -0.360552635630E+04    0.43927E-01   -0.28168E-02  8220   0.161E-01    0.812E+00
RMM: 731    -0.360551424505E+04    0.12111E-01   -0.40808E-03  7826   0.545E-02    0.865E+00
RMM: 732    -0.360551295007E+04    0.12950E-02   -0.10330E-03  6895   0.234E-02    0.898E+00
RMM: 733    -0.360551530581E+04   -0.23557E-02   -0.23984E-03  8290   0.307E-02    0.895E+00
RMM: 734    -0.360552153679E+04   -0.62310E-02   -0.19492E-04  6273   0.962E-03    0.920E+00
RMM: 735    -0.360554051906E+04   -0.18982E-01   -0.47920E-04  7215   0.120E-02    0.976E+00
RMM: 736    -0.360553822139E+04    0.22977E-02   -0.35774E-04  6767   0.128E-02    0.983E+00
RMM: 737    -0.360553931319E+04   -0.10918E-02   -0.55444E-05  4703   0.497E-03    0.988E+00
RMM: 738    -0.360551014197E+04    0.29171E-01   -0.23276E-03  7770   0.289E-02    0.874E+00
RMM: 739    -0.360549361401E+04    0.16528E-01   -0.36563E-03  8332   0.375E-02    0.606E+00
RMM: 740    -0.360554283288E+04   -0.49219E-01   -0.10810E-02  8617   0.701E-02    0.693E+00
RMM: 741    -0.360554625119E+04   -0.34183E-02   -0.11871E-03  7981   0.195E-02    0.717E+00
RMM: 742    -0.360552620377E+04    0.20047E-01   -0.11101E-03  7887   0.201E-02    0.631E+00
RMM: 743    -0.360555356965E+04   -0.27366E-01   -0.57685E-03  8361   0.453E-02    0.715E+00
RMM: 744    -0.360557049349E+04   -0.16924E-01   -0.16866E-03  8313   0.254E-02    0.805E+00
RMM: 745    -0.360556136340E+04    0.91301E-02   -0.10067E-03  7651   0.238E-02    0.785E+00
RMM: 746    -0.360556306609E+04   -0.17027E-02   -0.20940E-04  6702   0.837E-03    0.783E+00
RMM: 747    -0.360556750664E+04   -0.44406E-02   -0.26789E-04  7036   0.846E-03    0.793E+00
RMM: 748    -0.360556180814E+04    0.56985E-02   -0.19927E-02  8600   0.794E-02    0.456E+00
RMM: 749    -0.360558651081E+04   -0.24703E-01   -0.15150E-02  8532   0.916E-02    0.319E+00
RMM: 750    -0.360558920392E+04   -0.26931E-02   -0.74060E-03  8205   0.716E-02    0.289E+00
RMM: 751    -0.360561112486E+04   -0.21921E-01   -0.35175E-03  7972   0.473E-02    0.279E+00
RMM: 752    -0.360564136069E+04   -0.30236E-01   -0.64683E-03  8506   0.432E-02    0.384E+00
RMM: 753    -0.360571501531E+04   -0.73655E-01   -0.65011E-01  8720   0.402E-01    0.759E+00
RMM: 754    -0.360571888182E+04   -0.38665E-02   -0.45517E-02  8683   0.188E-01    0.916E+00
RMM: 755    -0.360571332694E+04    0.55549E-02   -0.80765E-03  8453   0.651E-02    0.101E+01
RMM: 756    -0.360581588261E+04   -0.10256E+00   -0.89428E-03  8493   0.657E-02    0.118E+01
RMM: 757    -0.360568974481E+04    0.12614E+00   -0.11042E-02  8578   0.745E-02    0.966E+00
RMM: 758    -0.360572205672E+04   -0.32312E-01   -0.10916E-01  8702   0.175E-01    0.116E+01
RMM: 759    -0.360587083144E+04   -0.14877E+00   -0.82393E-02  8617   0.261E-01    0.164E+01
RMM: 760    -0.360576819507E+04    0.10264E+00   -0.56421E-02  8502   0.149E-01    0.152E+01
RMM: 761    -0.360575690700E+04    0.11288E-01   -0.16644E-03  7407   0.234E-02    0.147E+01
RMM: 762    -0.360577267043E+04   -0.15763E-01   -0.18690E-03  7646   0.254E-02    0.146E+01
RMM: 763    -0.360586003778E+04   -0.87367E-01   -0.24510E-02  8647   0.853E-02    0.167E+01
RMM: 764    -0.360586598674E+04   -0.59490E-02   -0.19741E-02  8399   0.816E-02    0.180E+01
RMM: 765    -0.360588214679E+04   -0.16160E-01   -0.34039E-02  8607   0.949E-02    0.184E+01
RMM: 766    -0.360588139203E+04    0.75476E-03   -0.36548E-03  7693   0.421E-02    0.184E+01
RMM: 767    -0.360594304599E+04   -0.61654E-01   -0.80232E-03  8454   0.518E-02    0.185E+01
RMM: 768    -0.360594482657E+04   -0.17806E-02   -0.51210E-02  8667   0.105E-01    0.183E+01
RMM: 769    -0.360592030840E+04    0.24518E-01   -0.51870E-03  8009   0.455E-02    0.181E+01
RMM: 770    -0.360592343261E+04   -0.31242E-02   -0.10704E-02  8336   0.552E-02    0.181E+01
RMM: 771    -0.360591622633E+04    0.72063E-02   -0.22700E-03  7487   0.271E-02    0.180E+01
RMM: 772    -0.360590003218E+04    0.16194E-01   -0.25398E-03  7755   0.314E-02    0.179E+01
RMM: 773    -0.360593855901E+04   -0.38527E-01   -0.47506E-03  8446   0.429E-02    0.181E+01
RMM: 774    -0.360598058520E+04   -0.42026E-01   -0.11263E-03  7978   0.207E-02    0.181E+01
RMM: 775    -0.360598533673E+04   -0.47515E-02   -0.35637E-04  6383   0.114E-02    0.181E+01
RMM: 776    -0.360604620937E+04   -0.60873E-01   -0.20709E-03  7837   0.269E-02    0.182E+01
RMM: 777    -0.360607526562E+04   -0.29056E-01   -0.16229E-03  7423   0.171E-02    0.182E+01
RMM: 778    -0.360606841065E+04    0.68550E-02   -0.13286E-03  7679   0.253E-02    0.182E+01
RMM: 779    -0.360604003673E+04    0.28374E-01   -0.89404E-04  7018   0.186E-02    0.182E+01
RMM: 780    -0.360593032794E+04    0.10971E+00   -0.88864E-03  8316   0.496E-02    0.180E+01
RMM: 781    -0.360592806427E+04    0.22637E-02   -0.16273E-03  7373   0.232E-02    0.180E+01
RMM: 782    -0.360587881008E+04    0.49254E-01   -0.49388E-03  8097   0.379E-02    0.175E+01
RMM: 783    -0.360573524118E+04    0.14357E+00   -0.38387E-02  8586   0.127E-01    0.147E+01
RMM: 784    -0.360576428008E+04   -0.29039E-01   -0.30828E-02  8495   0.103E-01    0.136E+01
RMM: 785    -0.360578360005E+04   -0.19320E-01   -0.16313E-02  8447   0.874E-02    0.133E+01
RMM: 786    -0.360583385256E+04   -0.50253E-01   -0.93765E-03  8390   0.572E-02    0.143E+01
RMM: 787    -0.360581681726E+04    0.17035E-01   -0.27416E-03  7850   0.326E-02    0.144E+01
RMM: 788    -0.360587106217E+04   -0.54245E-01   -0.95745E-02  8682   0.166E-01    0.141E+01
RMM: 789    -0.360583997062E+04    0.31092E-01   -0.19166E-02  8625   0.829E-02    0.137E+01
RMM: 790    -0.360582931716E+04    0.10653E-01   -0.14723E-02  8440   0.884E-02    0.138E+01
RMM: 791    -0.360581105105E+04    0.18266E-01   -0.14554E-03  7596   0.258E-02    0.133E+01
RMM: 792    -0.360587599041E+04   -0.64939E-01   -0.13815E-02  8340   0.626E-02    0.150E+01
RMM: 793    -0.360617357910E+04   -0.29759E+00   -0.12732E+00  8718   0.516E-01    0.181E+01
RMM: 794    -0.360636780195E+04   -0.19422E+00   -0.44360E-01  8663   0.277E-01    0.179E+01
RMM: 795    -0.360637693727E+04   -0.91353E-02   -0.11967E-01  8491   0.127E-01    0.177E+01
RMM: 796    -0.360631513919E+04    0.61798E-01   -0.85172E-02  8575   0.120E-01    0.154E+01
RMM: 797    -0.360600215022E+04    0.31299E+00   -0.34988E-01  8695   0.207E-01    0.113E+01
RMM: 798    -0.360537565154E+04    0.62650E+00   -0.52751E-01  8685   0.318E-01    0.168E+01
RMM: 799    -0.360529929094E+04    0.76361E-01   -0.22098E-01  8598   0.196E-01    0.128E+01
RMM: 800    -0.360492887045E+04    0.37042E+00   -0.13541E-01  8475   0.140E-01    0.122E+01
RMM: 801    -0.360461332785E+04    0.31554E+00   -0.77431E-02  8348   0.956E-02    0.136E+01
RMM: 802    -0.360489129046E+04   -0.27796E+00   -0.53679E-02  8180   0.104E-01    0.152E+01
RMM: 803    -0.360590522056E+04   -0.10139E+01   -0.16759E+00  8717   0.531E-01    0.180E+01
RMM: 804    -0.360598865042E+04   -0.83430E-01   -0.16102E-01  8663   0.190E-01    0.180E+01
RMM: 805    -0.360592645462E+04    0.62196E-01   -0.99459E-02  8449   0.110E-01    0.179E+01
RMM: 806    -0.360580017311E+04    0.12628E+00   -0.14163E-01  8434   0.139E-01    0.177E+01
RMM: 807    -0.360569268257E+04    0.10749E+00   -0.53265E-02  8287   0.904E-02    0.176E+01
RMM: 808    -0.360563077928E+04    0.61903E-01   -0.18575E-01  8463   0.181E-01    0.176E+01
RMM: 809    -0.360554278630E+04    0.87993E-01   -0.22100E-02  7631   0.530E-02    0.176E+01
RMM: 810    -0.360537731601E+04    0.16547E+00   -0.34253E-02  8025   0.648E-02    0.176E+01
RMM: 811    -0.360520634708E+04    0.17097E+00   -0.93711E-02  8634   0.112E-01    0.179E+01
RMM: 812    -0.360487494115E+04    0.33141E+00   -0.13785E-01  8416   0.136E-01    0.182E+01
RMM: 813    -0.360536482860E+04   -0.48989E+00   -0.25425E-01  8635   0.189E-01    0.180E+01
RMM: 814    -0.360545624186E+04   -0.91413E-01   -0.10755E-01  8352   0.109E-01    0.178E+01
RMM: 815    -0.360546630902E+04   -0.10067E-01   -0.63577E-03  7296   0.325E-02    0.178E+01
RMM: 816    -0.360561789193E+04   -0.15158E+00   -0.49381E-02  8202   0.831E-02    0.178E+01
RMM: 817    -0.360581150659E+04   -0.19361E+00   -0.11625E-01  8641   0.130E-01    0.177E+01
RMM: 818    -0.360559103568E+04    0.22047E+00   -0.35286E-01  8657   0.272E-01    0.178E+01
RMM: 819    -0.360556493972E+04    0.26096E-01   -0.11810E-01  8574   0.204E-01    0.171E+01
RMM: 820    -0.360496545869E+04    0.59948E+00   -0.32023E-01  8517   0.210E-01    0.108E+01
RMM: 821    -0.360459125362E+04    0.37421E+00   -0.15631E-01  8479   0.184E-01    0.920E+00
RMM: 822    -0.360468907731E+04   -0.97824E-01   -0.47610E-01  8696   0.256E-01    0.878E+00
RMM: 823    -0.360514347031E+04   -0.45439E+00   -0.10304E-01  8589   0.168E-01    0.943E+00
RMM: 824    -0.360538641747E+04   -0.24295E+00   -0.58793E-02  8407   0.117E-01    0.948E+00
RMM: 825    -0.360561570467E+04   -0.22929E+00   -0.61915E-02  8378   0.899E-02    0.989E+00
RMM: 826    -0.360563802271E+04   -0.22318E-01   -0.24052E-02  8178   0.636E-02    0.970E+00
RMM: 827    -0.360563657313E+04    0.14496E-02   -0.91957E-03  7978   0.552E-02    0.958E+00
RMM: 828    -0.360569116675E+04   -0.54594E-01   -0.48247E-02  8472   0.100E-01    0.941E+00
RMM: 829    -0.360569439569E+04   -0.32289E-02   -0.88036E-03  7606   0.722E-02    0.953E+00
RMM: 830    -0.360566953406E+04    0.24862E-01   -0.50024E-03  7767   0.407E-02    0.972E+00
RMM: 831    -0.360567390131E+04   -0.43673E-02   -0.34845E-03  7216   0.313E-02    0.987E+00
RMM: 832    -0.360566807543E+04    0.58259E-02   -0.24848E-03  6983   0.245E-02    0.998E+00
RMM: 833    -0.360582949405E+04   -0.16142E+00   -0.75778E-02  8526   0.119E-01    0.986E+00
RMM: 834    -0.360588008192E+04   -0.50588E-01   -0.27108E-02  8488   0.808E-02    0.117E+01
RMM: 835    -0.360577846552E+04    0.10162E+00   -0.50836E-02  8376   0.121E-01    0.973E+00
RMM: 836    -0.360580395462E+04   -0.25489E-01   -0.83685E-03  7985   0.514E-02    0.977E+00
RMM: 837    -0.360579353699E+04    0.10418E-01   -0.22913E-03  6663   0.295E-02    0.979E+00
RMM: 838    -0.360579789398E+04   -0.43570E-02   -0.15816E-01  8644   0.153E-01    0.904E+00
RMM: 839    -0.360565539219E+04    0.14250E+00   -0.30087E-02  8581   0.922E-02    0.894E+00
RMM: 840    -0.360574026530E+04   -0.84873E-01   -0.26586E-02  8270   0.128E-01    0.895E+00
RMM: 841    -0.360575194057E+04   -0.11675E-01   -0.30778E-03  7203   0.453E-02    0.893E+00
RMM: 842    -0.360575151815E+04    0.42243E-03   -0.32146E-04  5602   0.160E-02    0.893E+00
RMM: 843    -0.360512244609E+04    0.62907E+00   -0.43976E-01  8691   0.278E-01    0.872E+00
RMM: 844    -0.360502685260E+04    0.95593E-01   -0.28532E-02  8347   0.999E-02    0.887E+00
RMM: 845    -0.360506278530E+04   -0.35933E-01   -0.37690E-03  7540   0.467E-02    0.891E+00
RMM: 846    -0.360506781284E+04   -0.50275E-02   -0.62756E-04  6749   0.193E-02    0.894E+00
RMM: 847    -0.360507187032E+04   -0.40575E-02   -0.15054E-03  6799   0.208E-02    0.896E+00
RMM: 848    -0.360509412697E+04   -0.22257E-01   -0.97211E-03  8009   0.493E-02    0.887E+00
RMM: 849    -0.360511804607E+04   -0.23919E-01   -0.57197E-03  7680   0.417E-02    0.858E+00
RMM: 850    -0.360512660177E+04   -0.85557E-02   -0.11275E-03  7114   0.274E-02    0.866E+00
RMM: 851    -0.360507593174E+04    0.50670E-01   -0.29734E-02  8340   0.808E-02    0.736E+00
[...]
RMM:   6    -0.360607598360E+04   -0.78701E-06   -0.11676E-05  5048   0.281E-03    0.424E-03
RMM:   7    -0.360607598365E+04   -0.55981E-07   -0.23552E-06  3577   0.128E-03
 augmentation electrons   1797.84190851997     
 soft         electrons  0.000000000000000E+000
 total        electrons   1797.84190851997     
 augmentation electrons -4.480036600320234E-002
 soft         electrons  0.000000000000000E+000
 total        electrons -4.480036600320234E-002
 augmentation electrons   1987.31761176999     
 soft         electrons  0.000000000000000E+000
 total        electrons   1987.31761176999     
 augmentation electrons   1931.58870775799     
 soft         electrons  0.000000000000000E+000
 total        electrons   1931.58870775799     
 augmentation electrons   57.4731041505319     
 soft         electrons   1740.36874774059     
 total        electrons   1797.84185189112     
 augmentation electrons   23.7898480856132     
 soft         electrons   1740.36874774059     
 total        electrons   39.9557695691266     
 translations:           0           1           0
 130 F= -.36434242E+04 E0= -.36434241E+04  d E =-.581628E-03  mag=    40.0006
 trial-energy change:   -0.000582  1 .order   -0.000594   -0.000871   -0.000317
 step:   0.6082(harm=  0.5479)  dis= 0.00132  next Energy= -3643.424294 (dE=-0.695E-03)
 bond charge predicted
       N       E                     dE             d eps       ncg     rms          rms(c)
RMM:   1    -0.360607540180E+04    0.58179E-03   -0.59758E-02  5120   0.222E-01    0.101E-01
RMM:   2    -0.360607581847E+04   -0.41666E-03   -0.41611E-03  5138   0.593E-02    0.417E-02
RMM:   3    -0.360607586999E+04   -0.51524E-04   -0.58093E-04  5207   0.219E-02    0.318E-02
RMM:   4    -0.360607587186E+04   -0.18700E-05   -0.87025E-05  5452   0.864E-03    0.242E-02
RMM:   5    -0.360607586701E+04    0.48516E-05   -0.24689E-05  5095   0.433E-03    0.113E-02
RMM:   6    -0.360607586739E+04   -0.38114E-06   -0.71170E-06  4687   0.216E-03
 augmentation electrons   1797.84418044690     
 soft         electrons  0.000000000000000E+000
 total        electrons   1797.84418044690     
 augmentation electrons -4.487082201131891E-002
 soft         electrons  0.000000000000000E+000
 total        electrons -4.487082201131891E-002
 augmentation electrons   1988.18893897645     
 soft         electrons  0.000000000000000E+000
 total        electrons   1988.18893897645     
 augmentation electrons   1932.46003496445     
 soft         electrons  0.000000000000000E+000
 total        electrons   1932.46003496445     
 augmentation electrons   57.4752097730782     
 soft         electrons   1740.36891433937     
 total        electrons   1797.84412411245     
 augmentation electrons   23.7899889908030     
 soft         electrons   1740.36891433937     
 total        electrons   39.9556891812845     
 translations:           0           1           0
 131 F= -.36434243E+04 E0= -.36434242E+04  d E =-.666071E-03  mag=    40.0006
 curvature:  -1.53 expect dE=-0.441E-02 dE for cont linesearch -0.661E-05
 trial: gam= 1.33400 g(F)=  0.289E-02 g(S)=  0.000E+00 ort =-0.258E-03 (trialstep = 0.208E+00)
 search vector abs. value=  0.295E-01
 bond charge predicted
       N       E                     dE             d eps       ncg     rms          rms(c)
RMM:   1    -0.360607557442E+04    0.29259E-03   -0.68960E-02  5120   0.237E-01    0.105E-01
RMM:   2    -0.360607605161E+04   -0.47718E-03   -0.47992E-03  5145   0.638E-02    0.441E-02
RMM:   3    -0.360607611288E+04   -0.61269E-04   -0.67936E-04  5200   0.237E-02    0.338E-02
RMM:   4    -0.360607611607E+04   -0.31903E-05   -0.10754E-04  5436   0.952E-03    0.258E-02
RMM:   5    -0.360607611087E+04    0.51991E-05   -0.28670E-05  5123   0.467E-03    0.132E-02
RMM:   6    -0.360607611104E+04   -0.17727E-06   -0.89949E-06  4859   0.239E-03
 augmentation electrons   1797.84587063488     
 soft         electrons  0.000000000000000E+000
 total        electrons   1797.84587063488     
 augmentation electrons -4.502361824135657E-002
 soft         electrons  0.000000000000000E+000
 total        electrons -4.502361824135657E-002
 augmentation electrons   1988.96360019165     
 soft         electrons  0.000000000000000E+000
 total        electrons   1988.96360019165     
 augmentation electrons   1933.23469617965     
 soft         electrons  0.000000000000000E+000
 total        electrons   1933.23469617965     
 augmentation electrons   57.4767931025894     
 soft         electrons   1740.36902154536     
 total        electrons   1797.84581464795     
 augmentation electrons   23.7899756854833     
 soft         electrons   1740.36902154536     
 total        electrons   39.9555297520070     
 translations:           0           1           0
 132 F= -.36434247E+04 E0= -.36434246E+04  d E =-.468039E-03  mag=    40.0006
 trial-energy change:   -0.000468  1 .order   -0.000437   -0.000529   -0.000344
 step:   0.3509(harm=  0.5952)  dis= 0.00113  next Energy= -3643.424862 (dE=-0.596E-03)
 bond charge predicted
       N       E                     dE             d eps       ncg     rms          rms(c)
RMM:   1    -0.360607591599E+04    0.19487E-03   -0.32491E-02  5120   0.163E-01    0.719E-02
RMM:   2    -0.360607614067E+04   -0.22468E-03   -0.22564E-03  5143   0.439E-02    0.297E-02
RMM:   3    -0.360607617027E+04   -0.29594E-04   -0.32749E-04  5204   0.164E-02    0.231E-02
RMM:   4    -0.360607617175E+04   -0.14809E-05   -0.51452E-05  5447   0.656E-03    0.176E-02
RMM:   5    -0.360607616920E+04    0.25494E-05   -0.14079E-05  5078   0.324E-03    0.832E-03
RMM:   6    -0.360607616939E+04   -0.19018E-06   -0.40229E-06  4077   0.161E-03
 augmentation electrons   1797.84701493027     
 soft         electrons  0.000000000000000E+000
 total        electrons   1797.84701493027     
 augmentation electrons -4.518912647684243E-002
 soft         electrons  0.000000000000000E+000
 total        electrons -4.518912647684243E-002
 augmentation electrons   1989.41794603250     
 soft         electrons  0.000000000000000E+000
 total        electrons   1989.41794603250     
 augmentation electrons   1933.68904202050     
 soft         electrons  0.000000000000000E+000
 total        electrons   1933.68904202050     
 augmentation electrons   57.4778899388319     
 soft         electrons   1740.36906924686     
 total        electrons   1797.84695918569     
 augmentation electrons   23.7898948640995     
 soft         electrons   1740.36906924686     
 total        electrons   39.9553593920511     
 translations:           0           1           0
 133 F= -.36434249E+04 E0= -.36434248E+04  d E =-.677070E-03  mag=    40.0005
 curvature:  -2.08 expect dE=-0.492E-02 dE for cont linesearch -0.736E-04
 ZBRENT: increasing intervall
 opt :   0.6364  next Energy= -3643.425055 (dE=-0.789E-03)
 bond charge predicted
       N       E                     dE             d eps       ncg     rms          rms(c)
RMM:   1    -0.360607501354E+04    0.11557E-02   -0.12951E-01  5120   0.325E-01    0.144E-01
RMM:   2    -0.360607590989E+04   -0.89635E-03   -0.90215E-03  5146   0.874E-02    0.605E-02
RMM:   3    -0.360607602346E+04   -0.11357E-03   -0.12593E-03  5201   0.324E-02    0.459E-02
RMM:   4    -0.360607602891E+04   -0.54561E-05   -0.19959E-04  5434   0.130E-02    0.347E-02
RMM:   5    -0.360607601957E+04    0.93449E-05   -0.54035E-05  5141   0.640E-03    0.173E-02
RMM:   6    -0.360607602023E+04   -0.66248E-06   -0.15224E-05  5098   0.317E-03    0.486E-03
RMM:   7    -0.360607602034E+04   -0.11142E-06   -0.31373E-06  3828   0.146E-03
 augmentation electrons   1797.84946869020     
 soft         electrons  0.000000000000000E+000
 total        electrons   1797.84946869020     
 augmentation electrons -4.539282508531237E-002
 soft         electrons  0.000000000000000E+000
 total        electrons -4.539282508531237E-002
 augmentation electrons   1990.15725868716     
 soft         electrons  0.000000000000000E+000
 total        electrons   1990.15725868716     
 augmentation electrons   1934.42835467516     
 soft         electrons  0.000000000000000E+000
 total        electrons   1934.42835467516     
 augmentation electrons   57.4802311630159     
 soft         electrons   1740.36918227713     
 total        electrons   1797.84941344015     
 augmentation electrons   23.7898655163768     
 soft         electrons   1740.36918227713     
 total        electrons   39.9551444557897     
 translations:           0           1           0
 134 F= -.36434251E+04 E0= -.36434250E+04  d E =-.829964E-03  mag=    40.0005
 curvature:  -3.16 expect dE=-0.138E-01 dE for cont linesearch -0.611E-05
 trial: gam= 1.24114 g(F)=  0.438E-02 g(S)=  0.000E+00 ort =-0.239E-03 (trialstep = 0.176E+00)
 search vector abs. value=  0.492E-01
 bond charge predicted
       N       E                     dE             d eps       ncg     rms          rms(c)
RMM:   1    -0.360607583205E+04    0.18818E-03   -0.79841E-02  5120   0.254E-01    0.105E-01
RMM:   2    -0.360607633734E+04   -0.50529E-03   -0.51961E-03  5141   0.677E-02    0.451E-02
RMM:   3    -0.360607640733E+04   -0.69993E-04   -0.77440E-04  5206   0.252E-02    0.358E-02
RMM:   4    -0.360607641107E+04   -0.37407E-05   -0.12503E-04  5394   0.101E-02    0.269E-02
RMM:   5    -0.360607640578E+04    0.52894E-05   -0.32437E-05  5114   0.496E-03    0.134E-02
RMM:   6    -0.360607640599E+04   -0.20811E-06   -0.96588E-06  4913   0.250E-03
 augmentation electrons   1797.85061511378     
 soft         electrons  0.000000000000000E+000
 total        electrons   1797.85061511378     
 augmentation electrons -4.552947366028972E-002
 soft         electrons  0.000000000000000E+000
 total        electrons -4.552947366028972E-002
 augmentation electrons   1991.01521525479     
 soft         electrons  0.000000000000000E+000
 total        electrons   1991.01521525479     
 augmentation electrons   1935.28631124279     
 soft         electrons  0.000000000000000E+000
 total        electrons   1935.28631124279     
 augmentation electrons   57.4814232182515     
 soft         electrons   1740.36913695084     
 total        electrons   1797.85056016909     
 augmentation electrons   23.7898061638170     
 soft         electrons   1740.36913695084     
 total        electrons   39.9549966210355     
 translations:           0           1           0
 135 F= -.36434257E+04 E0= -.36434256E+04  d E =-.632590E-03  mag=    40.0005
 trial-energy change:   -0.000633  1 .order   -0.000579   -0.000720   -0.000439
 step:   0.2754(harm=  0.4523)  dis= 0.00116  next Energy= -3643.425862 (dE=-0.766E-03)
 bond charge predicted
       N       E                     dE             d eps       ncg     rms          rms(c)
RMM:   1    -0.360607631141E+04    0.94372E-04   -0.25484E-02  5120   0.144E-01    0.595E-02
RMM:   2    -0.360607647389E+04   -0.16248E-03   -0.16672E-03  5140   0.385E-02    0.253E-02
RMM:   3    -0.360607649692E+04   -0.23032E-04   -0.25444E-04  5210   0.144E-02    0.203E-02
RMM:   4    -0.360607649829E+04   -0.13730E-05   -0.41531E-05  5413   0.582E-03    0.154E-02
RMM:   5    -0.360607649652E+04    0.17758E-05   -0.10979E-05  5046   0.287E-03    0.769E-03
RMM:   6    -0.360607649658E+04   -0.59532E-07   -0.33727E-06  3928   0.147E-03
 augmentation electrons   1797.85126011684     
 soft         electrons  0.000000000000000E+000
 total        electrons   1797.85126011684     
 augmentation electrons -4.568849237361701E-002
 soft         electrons  0.000000000000000E+000
 total        electrons -4.568849237361701E-002
 augmentation electrons   1991.43836311804     
 soft         electrons  0.000000000000000E+000
 total        electrons   1991.43836311804     
 augmentation electrons   1935.70945910604     
 soft         electrons  0.000000000000000E+000
 total        electrons   1935.70945910604     
 augmentation electrons   57.4821154531215     
 soft         electrons   1740.36908989456     
 total        electrons   1797.85120534768     
 augmentation electrons   23.7896783619858     
 soft         electrons   1740.36908989456     
 total        electrons   39.9548316270613     
 translations:           0           1           0
 136 F= -.36434260E+04 E0= -.36434259E+04  d E =-.856404E-03  mag=    40.0005
 curvature:  -1.61 expect dE=-0.348E-02 dE for cont linesearch -0.815E-04
 ZBRENT: increasing intervall
 opt :   0.4741  next Energy= -3643.426084 (dE=-0.988E-03)
 bond charge predicted
       N       E                     dE             d eps       ncg     rms          rms(c)
RMM:   1    -0.360607567898E+04    0.81753E-03   -0.10152E-01  5120   0.287E-01    0.119E-01
RMM:   2    -0.360607632324E+04   -0.64425E-03   -0.66303E-03  5141   0.766E-02    0.508E-02
RMM:   3    -0.360607641308E+04   -0.89843E-04   -0.99165E-04  5207   0.286E-02    0.402E-02
RMM:   4    -0.360607641799E+04   -0.49127E-05   -0.15955E-04  5392   0.115E-02    0.303E-02
RMM:   5    -0.360607641149E+04    0.65060E-05   -0.41576E-05  5125   0.565E-03    0.151E-02
RMM:   6    -0.360607641179E+04   -0.29978E-06   -0.12205E-05  5033   0.283E-03    0.432E-03
RMM:   7    -0.360607641191E+04   -0.11866E-06   -0.25617E-06  3655   0.131E-03
 augmentation electrons   1797.85248000284     
 soft         electrons  0.000000000000000E+000
 total        electrons   1797.85248000284     
 augmentation electrons -4.574828924448059E-002
 soft         electrons  0.000000000000000E+000
 total        electrons -4.574828924448059E-002
 augmentation electrons   1992.14931234232     
 soft         electrons  0.000000000000000E+000
 total        electrons   1992.14931234232     
 augmentation electrons   1936.42040833032     
 soft         electrons  0.000000000000000E+000
 total        electrons   1936.42040833032     
 augmentation electrons   57.4834298370334     
 soft         electrons   1740.36899575534     
 total        electrons   1797.85242559237     
 augmentation electrons   23.7896853456463     
 soft         electrons   1740.36899575534     
 total        electrons   39.9547575217683     
 translations:           0           1           0
 137 F= -.36434261E+04 E0= -.36434260E+04  d E =-.104076E-02  mag=    40.0005
 curvature:  -2.60 expect dE=-0.854E-02 dE for cont linesearch -0.134E-05
 trial: gam= 0.64954 g(F)=  0.328E-02 g(S)=  0.000E+00 ort =-0.160E-03 (trialstep = 0.236E+00)
 search vector abs. value=  0.238E-01
 bond charge predicted
       N       E                     dE             d eps       ncg     rms          rms(c)
RMM:   1    -0.360607641969E+04   -0.78975E-05   -0.71029E-02  5120   0.238E-01    0.887E-02
RMM:   2    -0.360607680590E+04   -0.38621E-03   -0.41114E-03  5133   0.623E-02    0.394E-02
RMM:   3    -0.360607686458E+04   -0.58686E-04   -0.65507E-04  5195   0.232E-02    0.321E-02
RMM:   4    -0.360607686715E+04   -0.25716E-05   -0.10142E-04  5323   0.924E-03    0.237E-02
RMM:   5    -0.360607686347E+04    0.36859E-05   -0.29431E-05  5098   0.471E-03    0.109E-02
RMM:   6    -0.360607686405E+04   -0.58208E-06   -0.70038E-06  4707   0.220E-03
 augmentation electrons   1797.85243762397     
 soft         electrons  0.000000000000000E+000
 total        electrons   1797.85243762397     
 augmentation electrons -4.571627961845687E-002
 soft         electrons  0.000000000000000E+000
 total        electrons -4.571627961845687E-002
 augmentation electrons   1993.08801015643     
 soft         electrons  0.000000000000000E+000
 total        electrons   1993.08801015643     
 augmentation electrons   1937.35910614443     
 soft         electrons  0.000000000000000E+000
 total        electrons   1937.35910614443     
 augmentation electrons   57.4835950691111     
 soft         electrons   1740.36878827260     
 total        electrons   1797.85238334171     
 augmentation electrons   23.7896523777221     
 soft         electrons   1740.36878827260     
 total        electrons   39.9547787852636     
 translations:           0           1           0
 138 F= -.36434267E+04 E0= -.36434266E+04  d E =-.576876E-03  mag=    40.0005
 trial-energy change:   -0.000577  1 .order   -0.000568   -0.000749   -0.000387
 step:   0.4335(harm=  0.4874)  dis= 0.00122  next Energy= -3643.426881 (dE=-0.745E-03)
 bond charge predicted
       N       E                     dE             d eps       ncg     rms          rms(c)
RMM:   1    -0.360607664481E+04    0.21866E-03   -0.50138E-02  5120   0.200E-01    0.744E-02
RMM:   2    -0.360607691941E+04   -0.27460E-03   -0.29189E-03  5134   0.525E-02    0.331E-02
RMM:   3    -0.360607696134E+04   -0.41929E-04   -0.46847E-04  5198   0.197E-02    0.271E-02
RMM:   4    -0.360607696329E+04   -0.19541E-05   -0.73594E-05  5339   0.787E-03    0.200E-02
RMM:   5    -0.360607696066E+04    0.26307E-05   -0.21452E-05  5091   0.401E-03    0.908E-03
RMM:   6    -0.360607696109E+04   -0.43387E-06   -0.50801E-06  4355   0.188E-03
 augmentation electrons   1797.85226830322     
 soft         electrons  0.000000000000000E+000
 total        electrons   1797.85226830322     
 augmentation electrons -4.575340346470168E-002
 soft         electrons  0.000000000000000E+000
 total        electrons -4.575340346470168E-002
 augmentation electrons   1993.74392595902     
 soft         electrons  0.000000000000000E+000
 total        electrons   1993.74392595902     
 augmentation electrons   1938.01502194702     
 soft         electrons  0.000000000000000E+000
 total        electrons   1938.01502194702     
 augmentation electrons   57.4836235491142     
 soft         electrons   1740.36859058260     
 total        electrons   1797.85221413171     
 augmentation electrons   23.7895504821786     
 soft         electrons   1740.36859058260     
 total        electrons   39.9547325103719     
 translations:           0           1           0
 139 F= -.36434269E+04 E0= -.36434268E+04  d E =-.774182E-03  mag=    40.0005
 curvature:  -1.74 expect dE=-0.424E-02 dE for cont linesearch -0.586E-05
 trial: gam= 0.62426 g(F)=  0.243E-02 g(S)=  0.000E+00 ort = 0.283E-03 (trialstep = 0.275E+00)
 search vector abs. value=  0.121E-01
 bond charge predicted
       N       E                     dE             d eps       ncg     rms          rms(c)
RMM:   1    -0.360607717853E+04   -0.21787E-03   -0.49684E-02  5120   0.200E-01    0.750E-02
RMM:   2    -0.360607744814E+04   -0.26960E-03   -0.28649E-03  5144   0.524E-02    0.328E-02
RMM:   3    -0.360607749044E+04   -0.42301E-04   -0.47110E-04  5195   0.196E-02    0.270E-02
RMM:   4    -0.360607749232E+04   -0.18794E-05   -0.70793E-05  5361   0.775E-03    0.200E-02
RMM:   5    -0.360607748947E+04    0.28490E-05   -0.22341E-05  5112   0.403E-03    0.810E-03
RMM:   6    -0.360607749002E+04   -0.54843E-06   -0.46858E-06  4292   0.181E-03
 augmentation electrons   1797.85030464408     
 soft         electrons  0.000000000000000E+000
 total        electrons   1797.85030464408     
 augmentation electrons -4.574665880727745E-002
 soft         electrons  0.000000000000000E+000
 total        electrons -4.574665880727745E-002
 augmentation electrons   1994.63865225029     
 soft         electrons  0.000000000000000E+000
 total        electrons   1994.63865225029     
 augmentation electrons   1938.90974823829     
 soft         electrons  0.000000000000000E+000
 total        electrons   1938.90974823829     
 augmentation electrons   57.4819351563893     
 soft         electrons   1740.36831533608     
 total        electrons   1797.85025049247     
 augmentation electrons   23.7894159667874     
 soft         electrons   1740.36831533608     
 total        electrons   39.9547418646757     
 translations:           0           1           0
 140 F= -.36434274E+04 E0= -.36434273E+04  d E =-.538751E-03  mag=    40.0005
 trial-energy change:   -0.000539  1 .order   -0.000559   -0.000718   -0.000401
 step:   0.6226(harm=  0.6226)  dis= 0.00116  next Energy= -3643.427723 (dE=-0.812E-03)
 reached required accuracy - stopping structural energy minimisation
 writing wavefunctions
